2
Lattice="50.0 0.0 0.0 0.0 50.0 0.0 0.0 0.0 50.0" Properties=species:S:1:pos:R:3:forces:R:3 energy=-15763.1849592009 free_energy=-15763.2452436285 pbc="T T T"
Si       0.00000000       0.00000000       0.00000000       0.00000000      -0.00000000       0.73888480
Si       0.00000000       0.00000000       4.71717172       0.00000000       0.00000000      -0.73888480
2
Lattice="50.0 0.0 0.0 0.0 50.0 0.0 0.0 0.0 50.0" Properties=species:S:1:pos:R:3:forces:R:3 energy=-15763.781738294 free_energy=-15763.8381572697 pbc="T T T"
Si       0.00000000       0.00000000       0.00000000       0.00000000       0.00000000       1.26453032
Si       0.00000000       0.00000000       4.11616162       0.00000000      -0.00000000      -1.26453032
2
Lattice="50.0 0.0 0.0 0.0 50.0 0.0 0.0 0.0 50.0" Properties=species:S:1:pos:R:3:forces:R:3 energy=-15763.3305494933 free_energy=-15763.3877533731 pbc="T T T"
Si       0.00000000       0.00000000       0.00000000       0.00000000      -0.00000000       0.87468312
Si       0.00000000       0.00000000       4.54040404       0.00000000       0.00000000      -0.87468312
2
Lattice="50.0 0.0 0.0 0.0 50.0 0.0 0.0 0.0 50.0" Properties=species:S:1:pos:R:3:forces:R:3 energy=-15763.4633212821 free_energy=-15763.5198094528 pbc="T T T"
Si       0.00000000       0.00000000       0.00000000      -0.00000000       0.00000000       0.99362509
Si       0.00000000       0.00000000       4.39898990       0.00000000      -0.00000000      -0.99362509
2
Lattice="50.0 0.0 0.0 0.0 50.0 0.0 0.0 0.0 50.0" Properties=species:S:1:pos:R:3:forces:R:3 energy=-15767.2927489448 free_energy=-15767.3698770666 pbc="T T T"
Si       0.00000000       0.00000000       0.00000000       0.00000000      -0.00000000       0.03656728
Si       0.00000000       0.00000000       2.20707071       0.00000000      -0.00000000      -0.03656728
2
Lattice="50.0 0.0 0.0 0.0 50.0 0.0 0.0 0.0 50.0" Properties=species:S:1:pos:R:3:forces:R:3 energy=-15764.5467177163 free_energy=-15764.6031366746 pbc="T T T"
Si       0.00000000       0.00000000       0.00000000       0.00000000       0.00000000       1.84261098
Si       0.00000000       0.00000000       3.62121212       0.00000000       0.00000000      -1.84261098
2
Lattice="50.0 0.0 0.0 0.0 50.0 0.0 0.0 0.0 50.0" Properties=species:S:1:pos:R:3:forces:R:3 energy=-15763.9219213213 free_energy=-15763.9783402798 pbc="T T T"
Si       0.00000000       0.00000000       0.00000000       0.00000000       0.00000000       1.37870637
Si       0.00000000       0.00000000       4.01010101      -0.00000000       0.00000000      -1.37870637
2
Lattice="50.0 0.0 0.0 0.0 50.0 0.0 0.0 0.0 50.0" Properties=species:S:1:pos:R:3:forces:R:3 energy=-15767.0563671526 free_energy=-15767.1169001345 pbc="T T T"
Si       0.00000000       0.00000000       0.00000000       0.00000000       0.00000000      -2.81492358
Si       0.00000000       0.00000000       1.99494949       0.00000000       0.00000000       2.81492358
2
Lattice="50.0 0.0 0.0 0.0 50.0 0.0 0.0 0.0 50.0" Properties=species:S:1:pos:R:3:forces:R:3 energy=-15763.1583689517 free_energy=-15763.2195301025 pbc="T T T"
Si       0.00000000       0.00000000       0.00000000       0.00000000      -0.00000000       0.71309007
Si       0.00000000       0.00000000       4.75252525       0.00000000      -0.00000000      -0.71309007
2
Lattice="50.0 0.0 0.0 0.0 50.0 0.0 0.0 0.0 50.0" Properties=species:S:1:pos:R:3:forces:R:3 energy=-15765.195189131 free_energy=-15765.2516080893 pbc="T T T"
Si       0.00000000       0.00000000       0.00000000      -0.00000000      -0.00000000       2.22425351
Si       0.00000000       0.00000000       3.30303030      -0.00000000      -0.00000000      -2.22425351
3
Lattice="50.0 0.0 0.0 0.0 50.0 0.0 0.0 0.0 50.0" Properties=species:S:1:pos:R:3:forces:R:3 energy=-23653.4085785796 free_energy=-23653.4085785796 pbc="T T T"
Si       2.13197649       0.00000000       0.00000000      -2.42023594      -0.58643119      -0.00000000
Si      -1.94739577       0.77835012       0.00000000       1.58293746      -1.09987124       0.00000000
Si      -0.18458072      -0.77835012       0.00000000       0.83729848       1.68630243       0.00000000
3
Lattice="50.0 0.0 0.0 0.0 50.0 0.0 0.0 0.0 50.0" Properties=species:S:1:pos:R:3:forces:R:3 energy=-23653.6076504254 free_energy=-23653.6469378597 pbc="T T T"
Si       1.50258688       0.00000000       0.00000000      -1.97415217      -0.67165754       0.00000000
Si      -0.83079986       1.22683409       0.00000000       0.52195260      -2.00723364       0.00000000
Si      -0.67178701      -1.22683409       0.00000000       1.45219956       2.67889119       0.00000000
3
Lattice="50.0 0.0 0.0 0.0 50.0 0.0 0.0 0.0 50.0" Properties=species:S:1:pos:R:3:forces:R:3 energy=-23653.2659901194 free_energy=-23653.2659901194 pbc="T T T"
Si       2.09045186       0.00000000       0.00000000      -2.54296165      -0.69415787      -0.00000000
Si      -1.86626645       0.88621120       0.00000000       1.76924680      -1.51574448      -0.00000000
Si      -0.22418542      -0.88621120       0.00000000       0.77371485       2.20990235      -0.00000000
3
Lattice="50.0 0.0 0.0 0.0 50.0 0.0 0.0 0.0 50.0" Properties=species:S:1:pos:R:3:forces:R:3 energy=-23654.0136543122 free_energy=-23654.0164296132 pbc="T T T"
Si       1.54999413       0.00000000       0.00000000      -1.88669673      -1.09455766      -0.00000000
Si      -0.88487651       1.07374015       0.00000000      -0.26098242       0.73584788       0.00000000
Si      -0.66511762      -1.07374015       0.00000000       2.14767915       0.35870978      -0.00000000
3
Lattice="50.0 0.0 0.0 0.0 50.0 0.0 0.0 0.0 50.0" Properties=species:S:1:pos:R:3:forces:R:3 energy=-23653.6102306175 free_energy=-23653.6102306175 pbc="T T T"
Si       2.20992344       0.00000000       0.00000000      -1.54378226      -0.21391982       0.00000000
Si      -2.15547968       0.46882106       0.00000000       1.36846373      -0.49678571       0.00000000
Si      -0.05444376      -0.46882106       0.00000000       0.17531853       0.71070553       0.00000000
3
Lattice="50.0 0.0 0.0 0.0 50.0 0.0 0.0 0.0 50.0" Properties=species:S:1:pos:R:3:forces:R:3 energy=-23653.8593986777 free_energy=-23653.8593986777 pbc="T T T"
Si       1.73212308       0.00000000       0.00000000      -2.43848981      -0.90866454       0.00000000
Si      -1.25029346       1.09942927       0.00000000       0.80982813      -1.44638002      -0.00000000
Si      -0.48182962      -1.09942927       0.00000000       1.62866168       2.35504456       0.00000000
3
Lattice="50.0 0.0 0.0 0.0 50.0 0.0 0.0 0.0 50.0" Properties=species:S:1:pos:R:3:forces:R:3 energy=-23653.8824458199 free_energy=-23653.8824458199 pbc="T T T"
Si       1.66200334       0.00000000       0.00000000      -2.21464083      -0.95187098      -0.00000000
Si      -1.15148780       1.14066251       0.00000000       0.69199092      -1.74805708      -0.00000000
Si      -0.51051554      -1.14066251       0.00000000       1.52264991       2.69992805       0.00000000
3
Lattice="50.0 0.0 0.0 0.0 50.0 0.0 0.0 0.0 50.0" Properties=species:S:1:pos:R:3:forces:R:3 energy=-23654.0799663453 free_energy=-23654.1020317126 pbc="T T T"
Si       1.48312333       0.00000000       0.00000000      -1.35860599      -0.78245961      -0.00000000
Si      -0.81742154       1.10168310       0.00000000      -0.07626716      -0.10922186      -0.00000000
Si      -0.66570178      -1.10168310       0.00000000       1.43487315       0.89168147       0.00000000
3
Lattice="50.0 0.0 0.0 0.0 50.0 0.0 0.0 0.0 50.0" Properties=species:S:1:pos:R:3:forces:R:3 energy=-23653.7705995569 free_energy=-23653.7705995569 pbc="T T T"
Si       1.85746367       0.00000000       0.00000000      -2.36112266      -0.70669680       0.00000000
Si      -1.51494625       1.01885578       0.00000000       1.27943579      -1.49791373       0.00000000
Si      -0.34251742      -1.01885578       0.00000000       1.08168686       2.20461054      -0.00000000
3
Lattice="50.0 0.0 0.0 0.0 50.0 0.0 0.0 0.0 50.0" Properties=species:S:1:pos:R:3:forces:R:3 energy=-23653.4652760365 free_energy=-23653.4652760365 pbc="T T T"
Si       1.76447224       0.00000000       0.00000000      -2.44752520      -0.92576827       0.00000000
Si      -1.32307524       1.16194153       0.00000000       1.21085877      -2.28216675      -0.00000000
Si      -0.44139700      -1.16194153       0.00000000       1.23666643       3.20793502       0.00000000
4
Lattice="50.0 0.0 0.0 0.0 50.0 0.0 0.0 0.0 50.0" Properties=species:S:1:pos:R:3:forces:R:3 energy=-31538.6575711616 free_energy=-31538.6751472989 pbc="T T T"
Si       2.89494278       0.00000000       0.00000000      -1.48279909      -0.19225856      -0.12738827
Si      -1.72181421       1.42087488       0.00000000       1.15857716      -1.16060829      -0.05075487
Si      -1.78567830      -0.94429318       0.19279507       1.32860920       0.58384913      -0.25938317
Si       0.61254973      -0.47658170      -0.19279507      -1.00438727       0.76901772       0.43752631
4
Lattice="50.0 0.0 0.0 0.0 50.0 0.0 0.0 0.0 50.0" Properties=species:S:1:pos:R:3:forces:R:3 energy=-31541.1714780518 free_energy=-31541.1714780518 pbc="T T T"
Si       2.14099787       0.00000000       0.00000000      -1.77908715      -0.10344747       0.01130889
Si      -2.12136923       0.13906432       0.00000000       1.48216434      -0.25290339       0.06286281
Si      -0.03373090      -0.91742147       0.73188625       0.04414909      -0.88463921       0.88851737
Si       0.01410226       0.77835715      -0.73188625       0.25277372       1.24099008      -0.96268906
4
Lattice="50.0 0.0 0.0 0.0 50.0 0.0 0.0 0.0 50.0" Properties=species:S:1:pos:R:3:forces:R:3 energy=-31540.8025239825 free_energy=-31540.8025239825 pbc="T T T"
Si       1.92987646       0.00000000       0.00000000      -1.88346843      -0.90147495      -0.34705274
Si      -1.57178362       0.96314141       0.00000000      -0.38046027      -0.44725920       0.83864080
Si      -0.11118908      -0.63197648       1.20415153       0.32041869       1.15825099      -0.64762374
Si      -0.24690376      -0.33116493      -1.20415153       1.94351001       0.19048315       0.15603567
4
Lattice="50.0 0.0 0.0 0.0 50.0 0.0 0.0 0.0 50.0" Properties=species:S:1:pos:R:3:forces:R:3 energy=-31539.0786231654 free_energy=-31539.0797757857 pbc="T T T"
Si       2.70454881       0.00000000       0.00000000      -1.47757183       0.10394287      -0.20311507
Si      -2.13097084       0.92308458       0.00000000       2.15786231      -1.06570555      -0.17096419
Si      -1.05109051      -1.27541276       0.49630885       0.15674247       0.99063781      -0.32683889
Si       0.47751253       0.35232818      -0.49630885      -0.83703295      -0.02887513       0.70091816
4
Lattice="50.0 0.0 0.0 0.0 50.0 0.0 0.0 0.0 50.0" Properties=species:S:1:pos:R:3:forces:R:3 energy=-31540.2320056653 free_energy=-31540.2320056653 pbc="T T T"
Si       1.89563111       0.00000000       0.00000000      -1.59175888      -1.14148256      -0.28091462
Si      -1.33860601       1.23904180       0.00000000      -0.09176619      -1.35982183      -0.02455174
Si      -0.42589549      -0.90657958       1.16315039       0.66922109       1.30972697      -0.46924616
Si      -0.13112961      -0.33246222      -1.16315039       1.01430398       1.19157741       0.77471252
4
Lattice="50.0 0.0 0.0 0.0 50.0 0.0 0.0 0.0 50.0" Properties=species:S:1:pos:R:3:forces:R:3 energy=-31539.9208378013 free_energy=-31539.9208378013 pbc="T T T"
Si       2.00498967       0.00000000       0.00000000      -1.72599915      -0.86694777      -0.47120645
Si      -1.35204316       1.26858345       0.00000000       0.53147269      -1.65978619      -0.44863822
Si      -0.65494651      -0.80765170       1.13726585       0.50999175       0.85872553      -0.20982590
Si       0.00200000      -0.46093175      -1.13726585       0.68453471       1.66800843       1.12967056
4
Lattice="50.0 0.0 0.0 0.0 50.0 0.0 0.0 0.0 50.0" Properties=species:S:1:pos:R:3:forces:R:3 energy=-31539.1412330243 free_energy=-31539.1412331945 pbc="T T T"
Si       2.50789372       0.00000000       0.00000000      -2.06652004      -0.05959502      -0.53295416
Si      -1.69496039       1.05414621       0.00000000       0.06845472       0.39633449      -0.24756811
Si      -1.00446970      -1.01622961       0.67986881      -2.00554775      -2.37806653       2.77420427
Si       0.19153637      -0.03791660      -0.67986881       4.00361307       2.04132706      -1.99368201
4
Lattice="50.0 0.0 0.0 0.0 50.0 0.0 0.0 0.0 50.0" Properties=species:S:1:pos:R:3:forces:R:3 energy=-31538.6728033247 free_energy=-31538.6728788687 pbc="T T T"
Si       2.52943958       0.00000000       0.00000000       0.03466784      -0.39178153       0.07159381
Si      -1.84303218       1.38302815       0.00000000       1.59661779      -2.15602912       0.00355068
Si      -1.04608280      -1.63682688       0.12166661       0.00915094       1.50963376      -0.03782951
Si       0.35967541       0.25379873      -0.12166661      -1.64043657       1.03817689      -0.03731498
4
Lattice="50.0 0.0 0.0 0.0 50.0 0.0 0.0 0.0 50.0" Properties=species:S:1:pos:R:3:forces:R:3 energy=-31538.6004773079 free_energy=-31538.6507854893 pbc="T T T"
Si       1.96618513       0.00000000       0.00000000      -1.83107997       0.07580545      -0.78116541
Si      -0.88983437       1.61042339       0.00000000       0.59510872      -0.98486904       0.03429328
Si      -0.80015392      -1.16162447       0.97460611      -0.62438936      -0.14203023       1.23853205
Si      -0.27619684      -0.44879892      -0.97460611       1.86036061       1.05109382      -0.49165992
4
Lattice="50.0 0.0 0.0 0.0 50.0 0.0 0.0 0.0 50.0" Properties=species:S:1:pos:R:3:forces:R:3 energy=-31539.2019509488 free_energy=-31539.2019509488 pbc="T T T"
Si       2.46333990       0.00000000       0.00000000      -2.61588974      -0.31139151      -0.74556967
Si      -1.72340719       1.20826873       0.00000000       1.41456218      -1.69204209      -0.23286980
Si      -0.88303402      -1.06899525       0.91382797      -0.22073607       0.67108793       0.20074376
Si       0.14310131      -0.13927348      -0.91382797       1.42206363       1.33234567       0.77769571
