2
Lattice="50.0 0.0 0.0 0.0 50.0 0.0 0.0 0.0 50.0" Properties=species:S:1:pos:R:3:forces:R:3 energy=-15763.1849592009 free_energy=-15763.2452436285 pbc="T T T"
Si       0.00000000       0.00000000       0.00000000       0.00000000      -0.00000000       0.73888480
Si       0.00000000       0.00000000       4.71717172       0.00000000       0.00000000      -0.73888480
2
Lattice="50.0 0.0 0.0 0.0 50.0 0.0 0.0 0.0 50.0" Properties=species:S:1:pos:R:3:forces:R:3 energy=-15763.781738294 free_energy=-15763.8381572697 pbc="T T T"
Si       0.00000000       0.00000000       0.00000000       0.00000000       0.00000000       1.26453032
Si       0.00000000       0.00000000       4.11616162       0.00000000      -0.00000000      -1.26453032
2
Lattice="50.0 0.0 0.0 0.0 50.0 0.0 0.0 0.0 50.0" Properties=species:S:1:pos:R:3:forces:R:3 energy=-15763.3305494933 free_energy=-15763.3877533731 pbc="T T T"
Si       0.00000000       0.00000000       0.00000000       0.00000000      -0.00000000       0.87468312
Si       0.00000000       0.00000000       4.54040404       0.00000000       0.00000000      -0.87468312
2
Lattice="50.0 0.0 0.0 0.0 50.0 0.0 0.0 0.0 50.0" Properties=species:S:1:pos:R:3:forces:R:3 energy=-15763.4633212821 free_energy=-15763.5198094528 pbc="T T T"
Si       0.00000000       0.00000000       0.00000000      -0.00000000       0.00000000       0.99362509
Si       0.00000000       0.00000000       4.39898990       0.00000000      -0.00000000      -0.99362509
2
Lattice="50.0 0.0 0.0 0.0 50.0 0.0 0.0 0.0 50.0" Properties=species:S:1:pos:R:3:forces:R:3 energy=-15767.2927489448 free_energy=-15767.3698770666 pbc="T T T"
Si       0.00000000       0.00000000       0.00000000       0.00000000      -0.00000000       0.03656728
Si       0.00000000       0.00000000       2.20707071       0.00000000      -0.00000000      -0.03656728
2
Lattice="50.0 0.0 0.0 0.0 50.0 0.0 0.0 0.0 50.0" Properties=species:S:1:pos:R:3:forces:R:3 energy=-15764.5467177163 free_energy=-15764.6031366746 pbc="T T T"
Si       0.00000000       0.00000000       0.00000000       0.00000000       0.00000000       1.84261098
Si       0.00000000       0.00000000       3.62121212       0.00000000       0.00000000      -1.84261098
2
Lattice="50.0 0.0 0.0 0.0 50.0 0.0 0.0 0.0 50.0" Properties=species:S:1:pos:R:3:forces:R:3 energy=-15763.9219213213 free_energy=-15763.9783402798 pbc="T T T"
Si       0.00000000       0.00000000       0.00000000       0.00000000       0.00000000       1.37870637
Si       0.00000000       0.00000000       4.01010101      -0.00000000       0.00000000      -1.37870637
2
Lattice="50.0 0.0 0.0 0.0 50.0 0.0 0.0 0.0 50.0" Properties=species:S:1:pos:R:3:forces:R:3 energy=-15767.0563671526 free_energy=-15767.1169001345 pbc="T T T"
Si       0.00000000       0.00000000       0.00000000       0.00000000       0.00000000      -2.81492358
Si       0.00000000       0.00000000       1.99494949       0.00000000       0.00000000       2.81492358
2
Lattice="50.0 0.0 0.0 0.0 50.0 0.0 0.0 0.0 50.0" Properties=species:S:1:pos:R:3:forces:R:3 energy=-15763.1583689517 free_energy=-15763.2195301025 pbc="T T T"
Si       0.00000000       0.00000000       0.00000000       0.00000000      -0.00000000       0.71309007
Si       0.00000000       0.00000000       4.75252525       0.00000000      -0.00000000      -0.71309007
2
Lattice="50.0 0.0 0.0 0.0 50.0 0.0 0.0 0.0 50.0" Properties=species:S:1:pos:R:3:forces:R:3 energy=-15765.195189131 free_energy=-15765.2516080893 pbc="T T T"
Si       0.00000000       0.00000000       0.00000000      -0.00000000      -0.00000000       2.22425351
Si       0.00000000       0.00000000       3.30303030      -0.00000000      -0.00000000      -2.22425351
