2
Lattice="50.0 0.0 0.0 0.0 50.0 0.0 0.0 0.0 50.0" Properties=species:S:1:pos:R:3:forces:R:3 energy=-15763.4286447612 free_energy=-15763.485205463 pbc="T T T"
Si       0.00000000       0.00000000       0.00000000      -0.00000000       0.00000000       0.96305543
Si       0.00000000       0.00000000       4.43434343       0.00000000      -0.00000000      -0.96305543
2
Lattice="50.0 0.0 0.0 0.0 50.0 0.0 0.0 0.0 50.0" Properties=species:S:1:pos:R:3:forces:R:3 energy=-15765.0406559132 free_energy=-15765.0970748716 pbc="T T T"
Si       0.00000000       0.00000000       0.00000000      -0.00000000       0.00000000       2.14467909
Si       0.00000000       0.00000000       3.37373737      -0.00000000      -0.00000000      -2.14467909
2
Lattice="50.0 0.0 0.0 0.0 50.0 0.0 0.0 0.0 50.0" Properties=species:S:1:pos:R:3:forces:R:3 energy=-15763.9713799474 free_energy=-15764.0277989058 pbc="T T T"
Si       0.00000000       0.00000000       0.00000000       0.00000000      -0.00000000       1.41816317
Si       0.00000000       0.00000000       3.97474747       0.00000000       0.00000000      -1.41816317
2
Lattice="50.0 0.0 0.0 0.0 50.0 0.0 0.0 0.0 50.0" Properties=species:S:1:pos:R:3:forces:R:3 energy=-15765.6890319075 free_energy=-15765.7454508658 pbc="T T T"
Si       0.00000000       0.00000000       0.00000000       0.00000000       0.00000000       2.41564432
Si       0.00000000       0.00000000       3.09090909      -0.00000000       0.00000000      -2.41564432
2
Lattice="50.0 0.0 0.0 0.0 50.0 0.0 0.0 0.0 50.0" Properties=species:S:1:pos:R:3:forces:R:3 energy=-15765.7748382287 free_energy=-15765.8312571871 pbc="T T T"
Si       0.00000000       0.00000000       0.00000000       0.00000000      -0.00000000       2.43686592
Si       0.00000000       0.00000000       3.05555556       0.00000000       0.00000000      -2.43686592
2
Lattice="50.0 0.0 0.0 0.0 50.0 0.0 0.0 0.0 50.0" Properties=species:S:1:pos:R:3:forces:R:3 energy=-15766.2103541481 free_energy=-15766.2667731065 pbc="T T T"
Si       0.00000000       0.00000000       0.00000000       0.00000000       0.00000000       2.46456474
Si       0.00000000       0.00000000       2.87878788       0.00000000       0.00000000      -2.46456474
2
Lattice="50.0 0.0 0.0 0.0 50.0 0.0 0.0 0.0 50.0" Properties=species:S:1:pos:R:3:forces:R:3 energy=-15767.2718210024 free_energy=-15767.3476372647 pbc="T T T"
Si       0.00000000       0.00000000       0.00000000       0.00000000       0.00000000       0.56650672
Si       0.00000000       0.00000000       2.27777778       0.00000000       0.00000000      -0.56650672
2
Lattice="50.0 0.0 0.0 0.0 50.0 0.0 0.0 0.0 50.0" Properties=species:S:1:pos:R:3:forces:R:3 energy=-15763.5358862368 free_energy=-15763.5923185802 pbc="T T T"
Si       0.00000000       0.00000000       0.00000000       0.00000000      -0.00000000       1.05672852
Si       0.00000000       0.00000000       4.32828283       0.00000000       0.00000000      -1.05672852
2
Lattice="50.0 0.0 0.0 0.0 50.0 0.0 0.0 0.0 50.0" Properties=species:S:1:pos:R:3:forces:R:3 energy=-15766.4603950323 free_energy=-15766.4824729397 pbc="T T T"
Si       0.00000000       0.00000000       0.00000000       0.00000000      -0.00000000      -6.49038017
Si       0.00000000       0.00000000       1.85353535       0.00000000      -0.00000000       6.49038017
2
Lattice="50.0 0.0 0.0 0.0 50.0 0.0 0.0 0.0 50.0" Properties=species:S:1:pos:R:3:forces:R:3 energy=-15760.0830185744 free_energy=-15760.0830185744 pbc="T T T"
Si       0.00000000       0.00000000       0.00000000      -0.00000000       0.00000000     -35.63580402
Si       0.00000000       0.00000000       1.50000000       0.00000000      -0.00000000      35.63580402
2
Lattice="50.0 0.0 0.0 0.0 50.0 0.0 0.0 0.0 50.0" Properties=species:S:1:pos:R:3:forces:R:3 energy=-15767.2734878228 free_energy=-15767.3488981224 pbc="T T T"
Si       0.00000000       0.00000000       0.00000000      -0.00000000       0.00000000      -0.66526190
Si       0.00000000       0.00000000       2.13636364      -0.00000000      -0.00000000       0.66526190
2
Lattice="50.0 0.0 0.0 0.0 50.0 0.0 0.0 0.0 50.0" Properties=species:S:1:pos:R:3:forces:R:3 energy=-15766.93246644 free_energy=-15766.9888881549 pbc="T T T"
Si       0.00000000       0.00000000       0.00000000       0.00000000       0.00000000       1.88257207
Si       0.00000000       0.00000000       2.56060606      -0.00000000       0.00000000      -1.88257207
2
Lattice="50.0 0.0 0.0 0.0 50.0 0.0 0.0 0.0 50.0" Properties=species:S:1:pos:R:3:forces:R:3 energy=-15763.8271274547 free_energy=-15763.8835464174 pbc="T T T"
Si       0.00000000       0.00000000       0.00000000       0.00000000      -0.00000000       1.30187470
Si       0.00000000       0.00000000       4.08080808       0.00000000       0.00000000      -1.30187470
2
Lattice="50.0 0.0 0.0 0.0 50.0 0.0 0.0 0.0 50.0" Properties=species:S:1:pos:R:3:forces:R:3 energy=-15766.7137740708 free_energy=-15766.7701930291 pbc="T T T"
Si       0.00000000       0.00000000       0.00000000       0.00000000       0.00000000       2.21079678
Si       0.00000000       0.00000000       2.66666667       0.00000000       0.00000000      -2.21079678
2
Lattice="50.0 0.0 0.0 0.0 50.0 0.0 0.0 0.0 50.0" Properties=species:S:1:pos:R:3:forces:R:3 energy=-15763.2123799074 free_energy=-15763.2718678085 pbc="T T T"
Si       0.00000000       0.00000000       0.00000000      -0.00000000       0.00000000       0.76501978
Si       0.00000000       0.00000000       4.68181818      -0.00000000       0.00000000      -0.76501978
2
Lattice="50.0 0.0 0.0 0.0 50.0 0.0 0.0 0.0 50.0" Properties=species:S:1:pos:R:3:forces:R:3 energy=-15763.9140059544 free_energy=-15763.9140059544 pbc="T T T"
Si       0.00000000       0.00000000       0.00000000       0.00000000      -0.00000000     -19.73210022
Si       0.00000000       0.00000000       1.64141414      -0.00000000       0.00000000      19.73210022
2
Lattice="50.0 0.0 0.0 0.0 50.0 0.0 0.0 0.0 50.0" Properties=species:S:1:pos:R:3:forces:R:3 energy=-15763.6948474919 free_energy=-15763.7512666647 pbc="T T T"
Si       0.00000000       0.00000000       0.00000000       0.00000000      -0.00000000       1.19217286
Si       0.00000000       0.00000000       4.18686869       0.00000000      -0.00000000      -1.19217286
2
Lattice="50.0 0.0 0.0 0.0 50.0 0.0 0.0 0.0 50.0" Properties=species:S:1:pos:R:3:forces:R:3 energy=-15763.6532941858 free_energy=-15763.7097138166 pbc="T T T"
Si       0.00000000       0.00000000       0.00000000       0.00000000       0.00000000       1.15717246
Si       0.00000000       0.00000000       4.22222222      -0.00000000       0.00000000      -1.15717246
2
Lattice="50.0 0.0 0.0 0.0 50.0 0.0 0.0 0.0 50.0" Properties=species:S:1:pos:R:3:forces:R:3 energy=-15766.8190156809 free_energy=-15766.8642175021 pbc="T T T"
Si       0.00000000       0.00000000       0.00000000      -0.00000000      -0.00000000      -4.40837633
Si       0.00000000       0.00000000       1.92424242       0.00000000      -0.00000000       4.40837633
2
Lattice="50.0 0.0 0.0 0.0 50.0 0.0 0.0 0.0 50.0" Properties=species:S:1:pos:R:3:forces:R:3 energy=-15766.8635378111 free_energy=-15766.919956799 pbc="T T T"
Si       0.00000000       0.00000000       0.00000000      -0.00000000      -0.00000000       2.01196061
Si       0.00000000       0.00000000       2.59595960       0.00000000      -0.00000000      -2.01196061
2
Lattice="50.0 0.0 0.0 0.0 50.0 0.0 0.0 0.0 50.0" Properties=species:S:1:pos:R:3:forces:R:3 energy=-15764.89191816 free_energy=-15764.9483371183 pbc="T T T"
Si       0.00000000       0.00000000       0.00000000       0.00000000      -0.00000000       2.06088616
Si       0.00000000       0.00000000       3.44444444       0.00000000      -0.00000000      -2.06088616
2
Lattice="50.0 0.0 0.0 0.0 50.0 0.0 0.0 0.0 50.0" Properties=species:S:1:pos:R:3:forces:R:3 energy=-15763.2697454417 free_energy=-15763.3278929029 pbc="T T T"
Si       0.00000000       0.00000000       0.00000000      -0.00000000      -0.00000000       0.81874289
Si       0.00000000       0.00000000       4.61111111      -0.00000000       0.00000000      -0.81874289
2
Lattice="50.0 0.0 0.0 0.0 50.0 0.0 0.0 0.0 50.0" Properties=species:S:1:pos:R:3:forces:R:3 energy=-15767.1469157668 free_energy=-15767.2123869039 pbc="T T T"
Si       0.00000000       0.00000000       0.00000000       0.00000000       0.00000000       1.28855078
Si       0.00000000       0.00000000       2.41919192       0.00000000       0.00000000      -1.28855078
2
Lattice="50.0 0.0 0.0 0.0 50.0 0.0 0.0 0.0 50.0" Properties=species:S:1:pos:R:3:forces:R:3 energy=-15765.9483131144 free_energy=-15766.0047320728 pbc="T T T"
Si       0.00000000       0.00000000       0.00000000      -0.00000000       0.00000000       2.46549802
Si       0.00000000       0.00000000       2.98484848       0.00000000      -0.00000000      -2.46549802
2
Lattice="50.0 0.0 0.0 0.0 50.0 0.0 0.0 0.0 50.0" Properties=species:S:1:pos:R:3:forces:R:3 energy=-15764.0222469075 free_energy=-15764.0786658658 pbc="T T T"
Si       0.00000000       0.00000000       0.00000000       0.00000000       0.00000000       1.45829775
Si       0.00000000       0.00000000       3.93939394      -0.00000000      -0.00000000      -1.45829775
2
Lattice="50.0 0.0 0.0 0.0 50.0 0.0 0.0 0.0 50.0" Properties=species:S:1:pos:R:3:forces:R:3 energy=-15767.1385965513 free_energy=-15767.2045514192 pbc="T T T"
Si       0.00000000       0.00000000       0.00000000      -0.00000000      -0.00000000      -2.16336342
Si       0.00000000       0.00000000       2.03030303      -0.00000000      -0.00000000       2.16336342
2
Lattice="50.0 0.0 0.0 0.0 50.0 0.0 0.0 0.0 50.0" Properties=species:S:1:pos:R:3:forces:R:3 energy=-15766.1230512905 free_energy=-15766.1794702489 pbc="T T T"
Si       0.00000000       0.00000000       0.00000000       0.00000000       0.00000000       2.47180314
Si       0.00000000       0.00000000       2.91414141      -0.00000000       0.00000000      -2.47180314
2
Lattice="50.0 0.0 0.0 0.0 50.0 0.0 0.0 0.0 50.0" Properties=species:S:1:pos:R:3:forces:R:3 energy=-15763.0602080613 free_energy=-15763.1258154639 pbc="T T T"
Si       0.00000000       0.00000000       0.00000000      -0.00000000      -0.00000000       0.61294792
Si       0.00000000       0.00000000       4.89393939      -0.00000000       0.00000000      -0.61294792
2
Lattice="50.0 0.0 0.0 0.0 50.0 0.0 0.0 0.0 50.0" Properties=species:S:1:pos:R:3:forces:R:3 energy=-15766.2228096384 free_energy=-15766.2307370087 pbc="T T T"
Si       0.00000000       0.00000000       0.00000000      -0.00000000       0.00000000      -7.80541975
Si       0.00000000       0.00000000       1.81818182      -0.00000000       0.00000000       7.80541975
2
Lattice="50.0 0.0 0.0 0.0 50.0 0.0 0.0 0.0 50.0" Properties=species:S:1:pos:R:3:forces:R:3 energy=-15763.8738460195 free_energy=-15763.9302649789 pbc="T T T"
Si       0.00000000       0.00000000       0.00000000      -0.00000000       0.00000000       1.33993833
Si       0.00000000       0.00000000       4.04545455      -0.00000000      -0.00000000      -1.33993833
2
Lattice="50.0 0.0 0.0 0.0 50.0 0.0 0.0 0.0 50.0" Properties=species:S:1:pos:R:3:forces:R:3 energy=-15766.6569531276 free_energy=-15766.6917033831 pbc="T T T"
Si       0.00000000       0.00000000       0.00000000       0.00000000       0.00000000      -5.37800311
Si       0.00000000       0.00000000       1.88888889       0.00000000       0.00000000       5.37800311
2
Lattice="50.0 0.0 0.0 0.0 50.0 0.0 0.0 0.0 50.0" Properties=species:S:1:pos:R:3:forces:R:3 energy=-15765.5199905647 free_energy=-15765.5764095231 pbc="T T T"
Si       0.00000000       0.00000000       0.00000000      -0.00000000      -0.00000000       2.36245790
Si       0.00000000       0.00000000       3.16161616      -0.00000000      -0.00000000      -2.36245790
2
Lattice="50.0 0.0 0.0 0.0 50.0 0.0 0.0 0.0 50.0" Properties=species:S:1:pos:R:3:forces:R:3 energy=-15763.3622936323 free_energy=-15763.4191902204 pbc="T T T"
Si       0.00000000       0.00000000       0.00000000      -0.00000000       0.00000000       0.90353654
Si       0.00000000       0.00000000       4.50505051      -0.00000000       0.00000000      -0.90353654
2
Lattice="50.0 0.0 0.0 0.0 50.0 0.0 0.0 0.0 50.0" Properties=species:S:1:pos:R:3:forces:R:3 energy=-15767.0530993361 free_energy=-15767.1112417871 pbc="T T T"
Si       0.00000000       0.00000000       0.00000000      -0.00000000       0.00000000       1.57292858
Si       0.00000000       0.00000000       2.48989899      -0.00000000       0.00000000      -1.57292858
2
Lattice="50.0 0.0 0.0 0.0 50.0 0.0 0.0 0.0 50.0" Properties=species:S:1:pos:R:3:forces:R:3 energy=-15763.1326070742 free_energy=-15763.1947297151 pbc="T T T"
Si       0.00000000       0.00000000       0.00000000      -0.00000000       0.00000000       0.68757926
Si       0.00000000       0.00000000       4.78787879      -0.00000000      -0.00000000      -0.68757926
2
Lattice="50.0 0.0 0.0 0.0 50.0 0.0 0.0 0.0 50.0" Properties=species:S:1:pos:R:3:forces:R:3 energy=-15764.5574808903 free_energy=-15764.5574808903 pbc="T T T"
Si       0.00000000       0.00000000       0.00000000      -0.00000000      -0.00000000     -16.71508013
Si       0.00000000       0.00000000       1.67676768       0.00000000      -0.00000000      16.71508013
2
Lattice="50.0 0.0 0.0 0.0 50.0 0.0 0.0 0.0 50.0" Properties=species:S:1:pos:R:3:forces:R:3 energy=-15764.1835122769 free_energy=-15764.2399312353 pbc="T T T"
Si       0.00000000       0.00000000       0.00000000       0.00000000      -0.00000000       1.58247079
Si       0.00000000       0.00000000       3.83333333      -0.00000000      -0.00000000      -1.58247079
2
Lattice="50.0 0.0 0.0 0.0 50.0 0.0 0.0 0.0 50.0" Properties=species:S:1:pos:R:3:forces:R:3 energy=-15764.2402293589 free_energy=-15764.2966483172 pbc="T T T"
Si       0.00000000       0.00000000       0.00000000      -0.00000000       0.00000000       1.62492130
Si       0.00000000       0.00000000       3.79797980      -0.00000000       0.00000000      -1.62492130
2
Lattice="50.0 0.0 0.0 0.0 50.0 0.0 0.0 0.0 50.0" Properties=species:S:1:pos:R:3:forces:R:3 energy=-15766.5523626063 free_energy=-15766.6087815646 pbc="T T T"
Si       0.00000000       0.00000000       0.00000000      -0.00000000       0.00000000       2.34381268
Si       0.00000000       0.00000000       2.73737374      -0.00000000      -0.00000000      -2.34381268
2
Lattice="50.0 0.0 0.0 0.0 50.0 0.0 0.0 0.0 50.0" Properties=species:S:1:pos:R:3:forces:R:3 energy=-15767.2005140526 free_energy=-15767.2706646956 pbc="T T T"
Si       0.00000000       0.00000000       0.00000000       0.00000000       0.00000000      -1.59388975
Si       0.00000000       0.00000000       2.06565657       0.00000000       0.00000000       1.59388975
2
Lattice="50.0 0.0 0.0 0.0 50.0 0.0 0.0 0.0 50.0" Properties=species:S:1:pos:R:3:forces:R:3 energy=-15765.3551384555 free_energy=-15765.4115574139 pbc="T T T"
Si       0.00000000       0.00000000       0.00000000      -0.00000000       0.00000000       2.29764546
Si       0.00000000       0.00000000       3.23232323      -0.00000000      -0.00000000      -2.29764546
2
Lattice="50.0 0.0 0.0 0.0 50.0 0.0 0.0 0.0 50.0" Properties=species:S:1:pos:R:3:forces:R:3 energy=-15766.6342382393 free_energy=-15766.6906571977 pbc="T T T"
Si       0.00000000       0.00000000       0.00000000      -0.00000000      -0.00000000       2.28461742
Si       0.00000000       0.00000000       2.70202020      -0.00000000      -0.00000000      -2.28461742
2
Lattice="50.0 0.0 0.0 0.0 50.0 0.0 0.0 0.0 50.0" Properties=species:S:1:pos:R:3:forces:R:3 energy=-15765.5531160706 free_energy=-15765.5531161981 pbc="T T T"
Si       0.00000000       0.00000000       0.00000000       0.00000000       0.00000000     -11.63276250
Si       0.00000000       0.00000000       1.74747475       0.00000000       0.00000000      11.63276250
2
Lattice="50.0 0.0 0.0 0.0 50.0 0.0 0.0 0.0 50.0" Properties=species:S:1:pos:R:3:forces:R:3 energy=-15763.08355066 free_energy=-15763.1478866917 pbc="T T T"
Si       0.00000000       0.00000000       0.00000000       0.00000000       0.00000000       0.63733794
Si       0.00000000       0.00000000       4.85858586      -0.00000000       0.00000000      -0.63733794
2
Lattice="50.0 0.0 0.0 0.0 50.0 0.0 0.0 0.0 50.0" Properties=species:S:1:pos:R:3:forces:R:3 energy=-15767.1026313731 free_energy=-15767.1643038847 pbc="T T T"
Si       0.00000000       0.00000000       0.00000000      -0.00000000       0.00000000       1.42980127
Si       0.00000000       0.00000000       2.45454545      -0.00000000       0.00000000      -1.42980127
2
Lattice="50.0 0.0 0.0 0.0 50.0 0.0 0.0 0.0 50.0" Properties=species:S:1:pos:R:3:forces:R:3 energy=-15767.2889037209 free_energy=-15767.365578417 pbc="T T T"
Si       0.00000000       0.00000000       0.00000000       0.00000000       0.00000000      -0.28951808
Si       0.00000000       0.00000000       2.17171717       0.00000000       0.00000000       0.28951808
2
Lattice="50.0 0.0 0.0 0.0 50.0 0.0 0.0 0.0 50.0" Properties=species:S:1:pos:R:3:forces:R:3 energy=-15763.4990527748 free_energy=-15763.5555032347 pbc="T T T"
Si       0.00000000       0.00000000       0.00000000      -0.00000000      -0.00000000       1.02482330
Si       0.00000000       0.00000000       4.36363636      -0.00000000       0.00000000      -1.02482330
2
Lattice="50.0 0.0 0.0 0.0 50.0 0.0 0.0 0.0 50.0" Properties=species:S:1:pos:R:3:forces:R:3 energy=-15767.1864187299 free_energy=-15767.2553288423 pbc="T T T"
Si       0.00000000       0.00000000       0.00000000       0.00000000       0.00000000       1.13755877
Si       0.00000000       0.00000000       2.38383838       0.00000000       0.00000000      -1.13755877
2
Lattice="50.0 0.0 0.0 0.0 50.0 0.0 0.0 0.0 50.0" Properties=species:S:1:pos:R:3:forces:R:3 energy=-15764.4194963412 free_energy=-15764.4759152996 pbc="T T T"
Si       0.00000000       0.00000000       0.00000000      -0.00000000       0.00000000       1.75471325
Si       0.00000000       0.00000000       3.69191919       0.00000000       0.00000000      -1.75471325
2
Lattice="50.0 0.0 0.0 0.0 50.0 0.0 0.0 0.0 50.0" Properties=species:S:1:pos:R:3:forces:R:3 energy=-15766.9509256914 free_energy=-15767.0046225985 pbc="T T T"
Si       0.00000000       0.00000000       0.00000000       0.00000000       0.00000000      -3.55900130
Si       0.00000000       0.00000000       1.95959596       0.00000000       0.00000000       3.55900130
2
Lattice="50.0 0.0 0.0 0.0 50.0 0.0 0.0 0.0 50.0" Properties=species:S:1:pos:R:3:forces:R:3 energy=-15767.2208338719 free_energy=-15767.2926539334 pbc="T T T"
Si       0.00000000       0.00000000       0.00000000      -0.00000000      -0.00000000       0.97019622
Si       0.00000000       0.00000000       2.34848485      -0.00000000      -0.00000000      -0.97019622
2
Lattice="50.0 0.0 0.0 0.0 50.0 0.0 0.0 0.0 50.0" Properties=species:S:1:pos:R:3:forces:R:3 energy=-15763.1581951628 free_energy=-15763.1581951628 pbc="T T T"
Si       0.00000000       0.00000000       0.00000000       0.00000000       0.00000000     -23.09603198
Si       0.00000000       0.00000000       1.60606061      -0.00000000      -0.00000000      23.09603198
2
Lattice="50.0 0.0 0.0 0.0 50.0 0.0 0.0 0.0 50.0" Properties=species:S:1:pos:R:3:forces:R:3 energy=-15767.244704415 free_energy=-15767.3179694297 pbc="T T T"
Si       0.00000000       0.00000000       0.00000000       0.00000000      -0.00000000      -1.09752528
Si       0.00000000       0.00000000       2.10101010       0.00000000      -0.00000000       1.09752528
2
Lattice="50.0 0.0 0.0 0.0 50.0 0.0 0.0 0.0 50.0" Properties=species:S:1:pos:R:3:forces:R:3 energy=-15766.2972547032 free_energy=-15766.3536736615 pbc="T T T"
Si       0.00000000       0.00000000       0.00000000      -0.00000000       0.00000000       2.44914482
Si       0.00000000       0.00000000       2.84343434      -0.00000000       0.00000000      -2.44914482
2
Lattice="50.0 0.0 0.0 0.0 50.0 0.0 0.0 0.0 50.0" Properties=species:S:1:pos:R:3:forces:R:3 energy=-15765.9259404525 free_energy=-15765.9261896519 pbc="T T T"
Si       0.00000000       0.00000000       0.00000000       0.00000000      -0.00000000      -9.52307101
Si       0.00000000       0.00000000       1.78282828      -0.00000000      -0.00000000       9.52307101
2
Lattice="50.0 0.0 0.0 0.0 50.0 0.0 0.0 0.0 50.0" Properties=species:S:1:pos:R:3:forces:R:3 energy=-15763.6129685654 free_energy=-15763.6693894815 pbc="T T T"
Si       0.00000000       0.00000000       0.00000000       0.00000000       0.00000000       1.12292969
Si       0.00000000       0.00000000       4.25757576      -0.00000000      -0.00000000      -1.12292969
2
Lattice="50.0 0.0 0.0 0.0 50.0 0.0 0.0 0.0 50.0" Properties=species:S:1:pos:R:3:forces:R:3 energy=-15765.100248221 free_energy=-15765.100248221 pbc="T T T"
Si       0.00000000       0.00000000       0.00000000      -0.00000000      -0.00000000     -14.02357868
Si       0.00000000       0.00000000       1.71212121      -0.00000000       0.00000000      14.02357868
2
Lattice="50.0 0.0 0.0 0.0 50.0 0.0 0.0 0.0 50.0" Properties=species:S:1:pos:R:3:forces:R:3 energy=-15764.2984551204 free_energy=-15764.3548740788 pbc="T T T"
Si       0.00000000       0.00000000       0.00000000      -0.00000000      -0.00000000       1.66782979
Si       0.00000000       0.00000000       3.76262626       0.00000000      -0.00000000      -1.66782979
2
Lattice="50.0 0.0 0.0 0.0 50.0 0.0 0.0 0.0 50.0" Properties=species:S:1:pos:R:3:forces:R:3 energy=-15766.4686275299 free_energy=-15766.5250464882 pbc="T T T"
Si       0.00000000       0.00000000       0.00000000       0.00000000       0.00000000       2.39013284
Si       0.00000000       0.00000000       2.77272727       0.00000000      -0.00000000      -2.39013284
2
Lattice="50.0 0.0 0.0 0.0 50.0 0.0 0.0 0.0 50.0" Properties=species:S:1:pos:R:3:forces:R:3 energy=-15763.2406394706 free_energy=-15763.2994127135 pbc="T T T"
Si       0.00000000       0.00000000       0.00000000       0.00000000       0.00000000       0.79160173
Si       0.00000000       0.00000000       4.64646465       0.00000000      -0.00000000      -0.79160173
2
Lattice="50.0 0.0 0.0 0.0 50.0 0.0 0.0 0.0 50.0" Properties=species:S:1:pos:R:3:forces:R:3 energy=-15764.8197979708 free_energy=-15764.8762169291 pbc="T T T"
Si       0.00000000       0.00000000       0.00000000       0.00000000      -0.00000000       2.01786917
Si       0.00000000       0.00000000       3.47979798      -0.00000000      -0.00000000      -2.01786917
2
Lattice="50.0 0.0 0.0 0.0 50.0 0.0 0.0 0.0 50.0" Properties=species:S:1:pos:R:3:forces:R:3 energy=-15762.9944540791 free_energy=-15763.0646249013 pbc="T T T"
Si       0.00000000       0.00000000       0.00000000       0.00000000      -0.00000000       0.54526459
Si       0.00000000       0.00000000       5.00000000      -0.00000000       0.00000000      -0.54526459
2
Lattice="50.0 0.0 0.0 0.0 50.0 0.0 0.0 0.0 50.0" Properties=species:S:1:pos:R:3:forces:R:3 energy=-15764.9655488547 free_energy=-15765.021967813 pbc="T T T"
Si       0.00000000       0.00000000       0.00000000       0.00000000       0.00000000       2.10319697
Si       0.00000000       0.00000000       3.40909091       0.00000000      -0.00000000      -2.10319697
2
Lattice="50.0 0.0 0.0 0.0 50.0 0.0 0.0 0.0 50.0" Properties=species:S:1:pos:R:3:forces:R:3 energy=-15765.8613227393 free_energy=-15765.9177416977 pbc="T T T"
Si       0.00000000       0.00000000       0.00000000       0.00000000      -0.00000000       2.45369411
Si       0.00000000       0.00000000       3.02020202      -0.00000000       0.00000000      -2.45369411
2
Lattice="50.0 0.0 0.0 0.0 50.0 0.0 0.0 0.0 50.0" Properties=species:S:1:pos:R:3:forces:R:3 energy=-15765.2745154871 free_energy=-15765.3309344454 pbc="T T T"
Si       0.00000000       0.00000000       0.00000000      -0.00000000      -0.00000000       2.26186341
Si       0.00000000       0.00000000       3.26767677      -0.00000000       0.00000000      -2.26186341
2
Lattice="50.0 0.0 0.0 0.0 50.0 0.0 0.0 0.0 50.0" Properties=species:S:1:pos:R:3:forces:R:3 energy=-15764.1282843154 free_energy=-15764.1847032738 pbc="T T T"
Si       0.00000000       0.00000000       0.00000000       0.00000000       0.00000000       1.54049362
Si       0.00000000       0.00000000       3.86868687       0.00000000      -0.00000000      -1.54049362
2
Lattice="50.0 0.0 0.0 0.0 50.0 0.0 0.0 0.0 50.0" Properties=species:S:1:pos:R:3:forces:R:3 energy=-15765.6040417353 free_energy=-15765.6604606937 pbc="T T T"
Si       0.00000000       0.00000000       0.00000000       0.00000000      -0.00000000       2.39071261
Si       0.00000000       0.00000000       3.12626263       0.00000000       0.00000000      -2.39071261
2
Lattice="50.0 0.0 0.0 0.0 50.0 0.0 0.0 0.0 50.0" Properties=species:S:1:pos:R:3:forces:R:3 energy=-15764.0745300374 free_energy=-15764.1309489958 pbc="T T T"
Si       0.00000000       0.00000000       0.00000000       0.00000000      -0.00000000       1.49909683
Si       0.00000000       0.00000000       3.90404040      -0.00000000      -0.00000000      -1.49909683
2
Lattice="50.0 0.0 0.0 0.0 50.0 0.0 0.0 0.0 50.0" Properties=species:S:1:pos:R:3:forces:R:3 energy=-15764.4823311698 free_energy=-15764.5387501281 pbc="T T T"
Si       0.00000000       0.00000000       0.00000000      -0.00000000       0.00000000       1.79858985
Si       0.00000000       0.00000000       3.65656566      -0.00000000      -0.00000000      -1.79858985
2
Lattice="50.0 0.0 0.0 0.0 50.0 0.0 0.0 0.0 50.0" Properties=species:S:1:pos:R:3:forces:R:3 energy=-15763.0376108652 free_energy=-15763.1046110031 pbc="T T T"
Si       0.00000000       0.00000000       0.00000000       0.00000000       0.00000000       0.58941007
Si       0.00000000       0.00000000       4.92929293      -0.00000000       0.00000000      -0.58941007
2
Lattice="50.0 0.0 0.0 0.0 50.0 0.0 0.0 0.0 50.0" Properties=species:S:1:pos:R:3:forces:R:3 energy=-15763.5738477837 free_energy=-15763.6302720464 pbc="T T T"
Si       0.00000000       0.00000000       0.00000000      -0.00000000       0.00000000       1.08944252
Si       0.00000000       0.00000000       4.29292929       0.00000000      -0.00000000      -1.08944252
2
Lattice="50.0 0.0 0.0 0.0 50.0 0.0 0.0 0.0 50.0" Properties=species:S:1:pos:R:3:forces:R:3 energy=-15766.0356235985 free_energy=-15766.0920425569 pbc="T T T"
Si       0.00000000       0.00000000       0.00000000       0.00000000      -0.00000000       2.47177271
Si       0.00000000       0.00000000       2.94949495      -0.00000000      -0.00000000      -2.47177271
2
Lattice="50.0 0.0 0.0 0.0 50.0 0.0 0.0 0.0 50.0" Properties=species:S:1:pos:R:3:forces:R:3 energy=-15764.6801545758 free_energy=-15764.7365735342 pbc="T T T"
Si       0.00000000       0.00000000       0.00000000       0.00000000       0.00000000       1.93062641
Si       0.00000000       0.00000000       3.55050505       0.00000000       0.00000000      -1.93062641
2
Lattice="50.0 0.0 0.0 0.0 50.0 0.0 0.0 0.0 50.0" Properties=species:S:1:pos:R:3:forces:R:3 energy=-15765.4369901852 free_energy=-15765.4934091436 pbc="T T T"
Si       0.00000000       0.00000000       0.00000000       0.00000000      -0.00000000       2.33130167
Si       0.00000000       0.00000000       3.19696970       0.00000000       0.00000000      -2.33130167
2
Lattice="50.0 0.0 0.0 0.0 50.0 0.0 0.0 0.0 50.0" Properties=species:S:1:pos:R:3:forces:R:3 energy=-15763.0157203973 free_energy=-15763.0842414169 pbc="T T T"
Si       0.00000000       0.00000000       0.00000000      -0.00000000       0.00000000       0.56681257
Si       0.00000000       0.00000000       4.96464646      -0.00000000       0.00000000      -0.56681257
2
Lattice="50.0 0.0 0.0 0.0 50.0 0.0 0.0 0.0 50.0" Properties=species:S:1:pos:R:3:forces:R:3 energy=-15764.7492053002 free_energy=-15764.8056242586 pbc="T T T"
Si       0.00000000       0.00000000       0.00000000       0.00000000       0.00000000       1.97441036
Si       0.00000000       0.00000000       3.51515152       0.00000000      -0.00000000      -1.97441036
2
Lattice="50.0 0.0 0.0 0.0 50.0 0.0 0.0 0.0 50.0" Properties=species:S:1:pos:R:3:forces:R:3 energy=-15763.7376539616 free_energy=-15763.7940729834 pbc="T T T"
Si       0.00000000       0.00000000       0.00000000       0.00000000       0.00000000       1.22796080
Si       0.00000000       0.00000000       4.15151515       0.00000000       0.00000000      -1.22796080
2
Lattice="50.0 0.0 0.0 0.0 50.0 0.0 0.0 0.0 50.0" Properties=species:S:1:pos:R:3:forces:R:3 energy=-15766.7904110478 free_energy=-15766.8468300063 pbc="T T T"
Si       0.00000000       0.00000000       0.00000000       0.00000000      -0.00000000       2.12053395
Si       0.00000000       0.00000000       2.63131313       0.00000000      -0.00000000      -2.12053395
2
Lattice="50.0 0.0 0.0 0.0 50.0 0.0 0.0 0.0 50.0" Properties=species:S:1:pos:R:3:forces:R:3 energy=-15763.1076794832 free_energy=-15763.1708575138 pbc="T T T"
Si       0.00000000       0.00000000       0.00000000      -0.00000000      -0.00000000       0.66227530
Si       0.00000000       0.00000000       4.82323232      -0.00000000       0.00000000      -0.66227530
2
Lattice="50.0 0.0 0.0 0.0 50.0 0.0 0.0 0.0 50.0" Properties=species:S:1:pos:R:3:forces:R:3 energy=-15764.6126593617 free_energy=-15764.6690783201 pbc="T T T"
Si       0.00000000       0.00000000       0.00000000       0.00000000       0.00000000       1.88666530
Si       0.00000000       0.00000000       3.58585859      -0.00000000      -0.00000000      -1.88666530
2
Lattice="50.0 0.0 0.0 0.0 50.0 0.0 0.0 0.0 50.0" Properties=species:S:1:pos:R:3:forces:R:3 energy=-15764.3582067429 free_energy=-15764.4146257012 pbc="T T T"
Si       0.00000000       0.00000000       0.00000000      -0.00000000       0.00000000       1.71109087
Si       0.00000000       0.00000000       3.72727273       0.00000000      -0.00000000      -1.71109087
2