3
Lattice="50.0 0.0 0.0 0.0 50.0 0.0 0.0 0.0 50.0" Properties=species:S:1:pos:R:3:forces:R:3 energy=-23653.4085785796 free_energy=-23653.4085785796 pbc="T T T"
Si       2.13197649       0.00000000       0.00000000      -2.42023594      -0.58643119      -0.00000000
Si      -1.94739577       0.77835012       0.00000000       1.58293746      -1.09987124       0.00000000
Si      -0.18458072      -0.77835012       0.00000000       0.83729848       1.68630243       0.00000000
3
Lattice="50.0 0.0 0.0 0.0 50.0 0.0 0.0 0.0 50.0" Properties=species:S:1:pos:R:3:forces:R:3 energy=-23653.6076504254 free_energy=-23653.6469378597 pbc="T T T"
Si       1.50258688       0.00000000       0.00000000      -1.97415217      -0.67165754       0.00000000
Si      -0.83079986       1.22683409       0.00000000       0.52195260      -2.00723364       0.00000000
Si      -0.67178701      -1.22683409       0.00000000       1.45219956       2.67889119       0.00000000
3
Lattice="50.0 0.0 0.0 0.0 50.0 0.0 0.0 0.0 50.0" Properties=species:S:1:pos:R:3:forces:R:3 energy=-23653.2659901194 free_energy=-23653.2659901194 pbc="T T T"
Si       2.09045186       0.00000000       0.00000000      -2.54296165      -0.69415787      -0.00000000
Si      -1.86626645       0.88621120       0.00000000       1.76924680      -1.51574448      -0.00000000
Si      -0.22418542      -0.88621120       0.00000000       0.77371485       2.20990235      -0.00000000
3
Lattice="50.0 0.0 0.0 0.0 50.0 0.0 0.0 0.0 50.0" Properties=species:S:1:pos:R:3:forces:R:3 energy=-23654.0136543122 free_energy=-23654.0164296132 pbc="T T T"
Si       1.54999413       0.00000000       0.00000000      -1.88669673      -1.09455766      -0.00000000
Si      -0.88487651       1.07374015       0.00000000      -0.26098242       0.73584788       0.00000000
Si      -0.66511762      -1.07374015       0.00000000       2.14767915       0.35870978      -0.00000000
3
Lattice="50.0 0.0 0.0 0.0 50.0 0.0 0.0 0.0 50.0" Properties=species:S:1:pos:R:3:forces:R:3 energy=-23653.6102306175 free_energy=-23653.6102306175 pbc="T T T"
Si       2.20992344       0.00000000       0.00000000      -1.54378226      -0.21391982       0.00000000
Si      -2.15547968       0.46882106       0.00000000       1.36846373      -0.49678571       0.00000000
Si      -0.05444376      -0.46882106       0.00000000       0.17531853       0.71070553       0.00000000
3
Lattice="50.0 0.0 0.0 0.0 50.0 0.0 0.0 0.0 50.0" Properties=species:S:1:pos:R:3:forces:R:3 energy=-23653.8593986777 free_energy=-23653.8593986777 pbc="T T T"
Si       1.73212308       0.00000000       0.00000000      -2.43848981      -0.90866454       0.00000000
Si      -1.25029346       1.09942927       0.00000000       0.80982813      -1.44638002      -0.00000000
Si      -0.48182962      -1.09942927       0.00000000       1.62866168       2.35504456       0.00000000
3
Lattice="50.0 0.0 0.0 0.0 50.0 0.0 0.0 0.0 50.0" Properties=species:S:1:pos:R:3:forces:R:3 energy=-23653.8824458199 free_energy=-23653.8824458199 pbc="T T T"
Si       1.66200334       0.00000000       0.00000000      -2.21464083      -0.95187098      -0.00000000
Si      -1.15148780       1.14066251       0.00000000       0.69199092      -1.74805708      -0.00000000
Si      -0.51051554      -1.14066251       0.00000000       1.52264991       2.69992805       0.00000000
3
Lattice="50.0 0.0 0.0 0.0 50.0 0.0 0.0 0.0 50.0" Properties=species:S:1:pos:R:3:forces:R:3 energy=-23654.0799663453 free_energy=-23654.1020317126 pbc="T T T"
Si       1.48312333       0.00000000       0.00000000      -1.35860599      -0.78245961      -0.00000000
Si      -0.81742154       1.10168310       0.00000000      -0.07626716      -0.10922186      -0.00000000
Si      -0.66570178      -1.10168310       0.00000000       1.43487315       0.89168147       0.00000000
3
Lattice="50.0 0.0 0.0 0.0 50.0 0.0 0.0 0.0 50.0" Properties=species:S:1:pos:R:3:forces:R:3 energy=-23653.7705995569 free_energy=-23653.7705995569 pbc="T T T"
Si       1.85746367       0.00000000       0.00000000      -2.36112266      -0.70669680       0.00000000
Si      -1.51494625       1.01885578       0.00000000       1.27943579      -1.49791373       0.00000000
Si      -0.34251742      -1.01885578       0.00000000       1.08168686       2.20461054      -0.00000000
3
Lattice="50.0 0.0 0.0 0.0 50.0 0.0 0.0 0.0 50.0" Properties=species:S:1:pos:R:3:forces:R:3 energy=-23653.4652760365 free_energy=-23653.4652760365 pbc="T T T"
Si       1.76447224       0.00000000       0.00000000      -2.44752520      -0.92576827       0.00000000
Si      -1.32307524       1.16194153       0.00000000       1.21085877      -2.28216675      -0.00000000
Si      -0.44139700      -1.16194153       0.00000000       1.23666643       3.20793502       0.00000000
