4
Lattice="50.0 0.0 0.0 0.0 50.0 0.0 0.0 0.0 50.0" Properties=species:S:1:pos:R:3:forces:R:3 energy=-31538.7650963273 free_energy=-31538.7652057882 pbc="T T T"
Si       2.62705626       0.00000000       0.00000000      -1.44213574      -0.06746724      -0.07270417
Si      -1.82874075       1.36035533       0.00000000       1.59159255      -2.21274239       0.02602303
Si      -1.12965215      -1.51806126       0.31514350      -0.32544912       1.32641044      -0.04455485
Si       0.33133663       0.15770593      -0.31514350       0.17599231       0.95379918       0.09123599
4
Lattice="50.0 0.0 0.0 0.0 50.0 0.0 0.0 0.0 50.0" Properties=species:S:1:pos:R:3:forces:R:3 energy=-31537.6044181041 free_energy=-31537.6597124453 pbc="T T T"
Si       2.59600131       0.00000000       0.00000000      -1.93164809      -0.71361259      -0.54960315
Si      -1.51500625       1.45853362       0.00000000       0.45954058       3.52630289      -1.52390899
Si      -1.51874530      -0.42134064       0.70704756       1.25128175      -4.26280889       0.54232692
Si       0.43775024      -1.03719298      -0.70704756       0.22082576       1.45011859       1.53118522
4
Lattice="50.0 0.0 0.0 0.0 50.0 0.0 0.0 0.0 50.0" Properties=species:S:1:pos:R:3:forces:R:3 energy=-31538.0577863634 free_energy=-31538.1140697318 pbc="T T T"
Si       2.77321171       0.00000000       0.00000000      -1.85286604      -0.48594067      -0.65143102
Si      -2.07368828       1.17313063       0.00000000      -0.47810055       1.46685695      -0.87437659
Si      -1.20137410      -0.56453327       0.77770982       1.38594443      -1.73979960       0.25213721
Si       0.50185067      -0.60859736      -0.77770982       0.94502216       0.75888331       1.27367039
4
Lattice="50.0 0.0 0.0 0.0 50.0 0.0 0.0 0.0 50.0" Properties=species:S:1:pos:R:3:forces:R:3 energy=-31539.0767483069 free_energy=-31539.0767485457 pbc="T T T"
Si       2.56374555       0.00000000       0.00000000      -1.86341636       0.06585978      -0.44442261
Si      -1.80513998       0.84132477       0.00000000       0.88104881      -0.47760117      -0.24989270
Si      -1.15295115      -1.32420158       0.86180343       1.15206229       1.33110166      -1.00406711
Si       0.39434558       0.48287681      -0.86180343      -0.16969474      -0.91936028       1.69838241
4
Lattice="50.0 0.0 0.0 0.0 50.0 0.0 0.0 0.0 50.0" Properties=species:S:1:pos:R:3:forces:R:3 energy=-31539.8018941356 free_energy=-31539.8018941356 pbc="T T T"
Si       2.54362567       0.00000000       0.00000000      -2.31641165       0.14535969      -0.17907227
Si      -2.00944975       0.65119740       0.00000000       0.83706823      -0.31204590      -0.08322446
Si      -0.79590374      -1.42725765       0.36105314       0.84061842       1.13404422      -0.27656261
Si       0.26172782       0.77606025      -0.36105314       0.63872500      -0.96735800       0.53885934
4
Lattice="50.0 0.0 0.0 0.0 50.0 0.0 0.0 0.0 50.0" Properties=species:S:1:pos:R:3:forces:R:3 energy=-31538.2924878915 free_energy=-31538.3277698257 pbc="T T T"
Si       2.36676208       0.00000000       0.00000000      -1.69955444      -0.57484014      -0.39841284
Si      -1.26233562       1.78646868       0.00000000       0.80863429      -2.01835063       0.05247899
Si      -1.50301116      -0.59614564       0.62814833       0.46659815       0.82013906      -0.47216460
Si       0.39858470      -1.19032303      -0.62814833       0.42432199       1.77305171       0.81809845
4
Lattice="50.0 0.0 0.0 0.0 50.0 0.0 0.0 0.0 50.0" Properties=species:S:1:pos:R:3:forces:R:3 energy=-31538.8901012495 free_energy=-31538.8901012508 pbc="T T T"
Si       2.64349580       0.00000000       0.00000000      -2.20480852      -0.09288520      -0.35760348
Si      -1.61895410       1.30809508       0.00000000       0.17837799      -1.53808232       0.25357687
Si      -1.28551170      -1.46786117       0.54002614       0.64626949       2.04656299      -0.60290668
Si       0.26097000       0.15976609      -0.54002614       1.38016105      -0.41559548       0.70693329
4
Lattice="50.0 0.0 0.0 0.0 50.0 0.0 0.0 0.0 50.0" Properties=species:S:1:pos:R:3:forces:R:3 energy=-31538.9933976661 free_energy=-31538.9933976661 pbc="T T T"
Si       2.37548013       0.00000000       0.00000000      -1.11889818      -0.28792232      -0.07052683
Si      -1.46526142       1.46004291       0.00000000       0.00121267      -1.43204467       0.36312437
Si      -1.09708937      -1.51381614       0.63735956       0.38084786       1.76868307      -0.41075392
Si       0.18687067       0.05377323      -0.63735956       0.73683765      -0.04871608       0.11815639
4
Lattice="50.0 0.0 0.0 0.0 50.0 0.0 0.0 0.0 50.0" Properties=species:S:1:pos:R:3:forces:R:3 energy=-31538.103881752 free_energy=-31538.1046907521 pbc="T T T"
Si       2.40236670       0.00000000       0.00000000      -1.19792422      -0.54442135       0.02368546
Si      -1.64425357       1.71782832       0.00000000       0.80602636      -1.74716486      -0.02344973
Si      -0.87190743      -1.83597165       0.32154608       0.12516331       0.64859402       0.14299792
Si       0.11379430       0.11814333      -0.32154608       0.26673455       1.64299218      -0.14323365
4
Lattice="50.0 0.0 0.0 0.0 50.0 0.0 0.0 0.0 50.0" Properties=species:S:1:pos:R:3:forces:R:3 energy=-31539.1686562116 free_energy=-31539.2003082833 pbc="T T T"
Si       2.67446854       0.00000000       0.00000000      -2.22391290       0.29017247      -0.29339223
Si      -2.13347750       0.64325426       0.00000000       1.07669439       0.54887231      -0.41165278
Si      -0.84287650      -1.16020062       0.40664930      -0.24314460      -2.04555444       0.84794157
Si       0.30188547       0.51694636      -0.40664930       1.39036311       1.20650966      -0.14289656
4
Lattice="50.0 0.0 0.0 0.0 50.0 0.0 0.0 0.0 50.0" Properties=species:S:1:pos:R:3:forces:R:3 energy=-31537.9386868881 free_energy=-31537.9916946488 pbc="T T T"
Si       2.51083976       0.00000000       0.00000000      -1.79979902      -0.98613340      -0.22222386
Si      -1.55630650       1.82920463       0.00000000       0.39134737      -1.78946837       0.13401549
Si      -1.44478719      -0.51447365       0.37081089      -0.26922996       1.56121840      -0.00070136
Si       0.49025393      -1.31473098      -0.37081089       1.67768161       1.21438337       0.08890972
4
Lattice="50.0 0.0 0.0 0.0 50.0 0.0 0.0 0.0 50.0" Properties=species:S:1:pos:R:3:forces:R:3 energy=-31537.9073052261 free_energy=-31537.9625571191 pbc="T T T"
Si       2.35453244       0.00000000       0.00000000      -1.81068556      -0.76951814      -0.31034829
Si      -1.37620466       1.88910526       0.00000000       0.52459868      -2.11347158       0.25805668
Si      -1.40863685      -0.53322625       0.60522943       0.64791899       1.39048916      -0.58145485
Si       0.43030907      -1.35587901      -0.60522943       0.63816789       1.49250057       0.63374646
4
Lattice="50.0 0.0 0.0 0.0 50.0 0.0 0.0 0.0 50.0" Properties=species:S:1:pos:R:3:forces:R:3 energy=-31539.1308430326 free_energy=-31539.147950156 pbc="T T T"
Si       2.90628000       0.00000000       0.00000000      -1.98520551       0.09421196      -0.00196173
Si      -1.87682448       1.14880241       0.00000000       1.24858343      -0.68804081      -0.00092404
Si      -1.50769854      -1.17336056       0.00227943       0.33113458       0.39947763      -0.00121731
Si       0.47824303       0.02455815      -0.00227943       0.40548750       0.19435122       0.00410308
4
Lattice="50.0 0.0 0.0 0.0 50.0 0.0 0.0 0.0 50.0" Properties=species:S:1:pos:R:3:forces:R:3 energy=-31538.8641201758 free_energy=-31538.8797932758 pbc="T T T"
Si       2.96644554       0.00000000       0.00000000      -2.22308971      -0.10655037      -0.11894323
Si      -1.77989930       1.29961934       0.00000000       1.21037581      -1.00164877      -0.03952050
Si      -1.67788677      -1.06047697       0.12087319       0.67055501       0.56755981      -0.11263492
Si       0.49134053      -0.23914237      -0.12087319       0.34215889       0.54063933       0.27109864
4
Lattice="50.0 0.0 0.0 0.0 50.0 0.0 0.0 0.0 50.0" Properties=species:S:1:pos:R:3:forces:R:3 energy=-31539.8793936507 free_energy=-31539.8793936507 pbc="T T T"
Si       2.35141484       0.00000000       0.00000000      -2.49669705      -0.37803723      -0.56700241
Si      -1.67598899       0.95049252       0.00000000      -0.16400000       0.06770590      -0.25354161
Si      -0.79436131      -0.97984382       0.99002769       0.88814580       0.00942844       0.07100946
Si       0.11893545       0.02935130      -0.99002769       1.77255125       0.30090288       0.74953456
4
Lattice="50.0 0.0 0.0 0.0 50.0 0.0 0.0 0.0 50.0" Properties=species:S:1:pos:R:3:forces:R:3 energy=-31537.9085435602 free_energy=-31537.9622199246 pbc="T T T"
Si       2.73205580       0.00000000       0.00000000      -1.90433074      -0.59316216      -0.65939362
Si      -2.05844914       1.40477549       0.00000000       0.82642798      -1.13862896       0.19098472
Si      -1.22000157      -0.63183533       0.83223465       0.61226879       0.71066379      -1.16662983
Si       0.54639491      -0.77294017      -0.83223465       0.46563397       1.02112733       1.63503873
4
Lattice="50.0 0.0 0.0 0.0 50.0 0.0 0.0 0.0 50.0" Properties=species:S:1:pos:R:3:forces:R:3 energy=-31541.0060671586 free_energy=-31541.0060671586 pbc="T T T"
Si       2.17505574       0.00000000       0.00000000      -1.62084230      -0.56383084       0.16873351
Si      -2.08407717       0.25706887       0.00000000       1.42449502       0.02508177      -0.13993012
Si      -0.23900071      -1.26350533       0.45937464       0.95813459       1.06509550      -0.35068235
Si       0.14802214       1.00643646      -0.45937464      -0.76178731      -0.52634643       0.32187896
4
Lattice="50.0 0.0 0.0 0.0 50.0 0.0 0.0 0.0 50.0" Properties=species:S:1:pos:R:3:forces:R:3 energy=-31537.9802964732 free_energy=-31537.9889971947 pbc="T T T"
Si       2.61676866       0.00000000       0.00000000      -1.51657541      -0.21760020      -0.02558761
Si      -1.62546340       1.63634632       0.00000000       0.92006364      -2.03457942       0.00995748
Si      -1.26115275      -1.78322850       0.14968044       0.66491212       1.98279804      -0.12324436
Si       0.26984748       0.14688218      -0.14968044      -0.06840035       0.26938157       0.13887449
4
Lattice="50.0 0.0 0.0 0.0 50.0 0.0 0.0 0.0 50.0" Properties=species:S:1:pos:R:3:forces:R:3 energy=-31541.2219669565 free_energy=-31541.2219669565 pbc="T T T"
Si       1.95506710       0.00000000       0.00000000      -1.02666803      -0.36553411       0.03025177
Si      -1.81506587       0.62431315       0.00000000      -0.33858918      -0.35176033       0.87824669
Si      -0.09034442      -0.71646497       1.19684970       0.08239265       0.99304726      -1.30343796
Si      -0.04965680       0.09215182      -1.19684970       1.28286456      -0.27575282       0.39493950
4
Lattice="50.0 0.0 0.0 0.0 50.0 0.0 0.0 0.0 50.0" Properties=species:S:1:pos:R:3:forces:R:3 energy=-31539.5151233642 free_energy=-31539.5153489269 pbc="T T T"
Si       2.69669699       0.00000000       0.00000000      -2.01357432       0.20186233      -0.06084354
Si      -2.04837625       0.80054532       0.00000000       1.67684693      -0.41958250      -0.05917769
Si      -1.02649146      -1.38562007       0.10787342       0.35826128       0.46472438      -0.02736580
Si       0.37817072       0.58507475      -0.10787342      -0.02153389      -0.24700421       0.14738702
4
Lattice="50.0 0.0 0.0 0.0 50.0 0.0 0.0 0.0 50.0" Properties=species:S:1:pos:R:3:forces:R:3 energy=-31539.4713317352 free_energy=-31539.4713317352 pbc="T T T"
Si       2.44089435       0.00000000       0.00000000      -0.08752465      -0.13975380       0.20196961
Si      -1.51947049       1.29160098       0.00000000       0.57481964      -1.65240701       0.20454762
Si      -1.27575799      -1.31317030       0.63700991       0.62688850       1.78486176      -0.65698167
Si       0.35433414       0.02156931      -0.63700991      -1.11418350       0.00729905       0.25046444
4
Lattice="50.0 0.0 0.0 0.0 50.0 0.0 0.0 0.0 50.0" Properties=species:S:1:pos:R:3:forces:R:3 energy=-31539.7556399617 free_energy=-31539.7556401327 pbc="T T T"
Si       2.52507846       0.00000000       0.00000000      -2.66603096       0.12049439      -0.12107592
Si      -2.12782168       0.60087766       0.00000000       1.48495059      -0.34211057      -0.09206750
Si      -0.57115157      -1.31211476       0.24286299      -0.20797274      -1.45273895       0.42292675
Si       0.17389479       0.71123710      -0.24286299       1.38905311       1.67435512      -0.20978333
4
Lattice="50.0 0.0 0.0 0.0 50.0 0.0 0.0 0.0 50.0" Properties=species:S:1:pos:R:3:forces:R:3 energy=-31539.4077701759 free_energy=-31539.4077701759 pbc="T T T"
Si       2.22425204       0.00000000       0.00000000       0.30499625      -0.03639013       0.39388174
Si      -1.43739609       1.41821966       0.00000000       1.01745417      -2.17110501       0.10509671
Si      -1.03456936      -1.24470500       0.81672835      -0.00183476       1.49126216      -0.37094995
Si       0.24771342      -0.17351465      -0.81672835      -1.32061566       0.71623299      -0.12802850
4
Lattice="50.0 0.0 0.0 0.0 50.0 0.0 0.0 0.0 50.0" Properties=species:S:1:pos:R:3:forces:R:3 energy=-31539.4638606184 free_energy=-31539.5172788078 pbc="T T T"
Si       1.82468117       0.00000000       0.00000000      -1.47171946       0.59836598       0.01280085
Si      -0.60750353       1.71136952       0.00000000       1.09518712      -1.16110671      -0.04686825
Si      -1.41617606      -0.28674653       0.72547065       1.07641367      -0.40459464      -0.76155266
Si       0.19899843      -1.42462299      -0.72547065      -0.69988133       0.96733537       0.79562007
4
Lattice="50.0 0.0 0.0 0.0 50.0 0.0 0.0 0.0 50.0" Properties=species:S:1:pos:R:3:forces:R:3 energy=-31539.2309067716 free_energy=-31539.2309067716 pbc="T T T"
Si       2.44730005       0.00000000       0.00000000      -2.84133355      -0.18142830      -0.28065146
Si      -2.27725153       0.87009102       0.00000000       2.68557938      -1.22080690      -0.29183921
Si      -0.28101200      -1.36865030       0.62136628       0.00731707       0.23211424       0.32901481
Si       0.11096348       0.49855927      -0.62136628       0.14843710       1.17012096       0.24347586
4
Lattice="50.0 0.0 0.0 0.0 50.0 0.0 0.0 0.0 50.0" Properties=species:S:1:pos:R:3:forces:R:3 energy=-31539.8139277496 free_energy=-31539.8139284304 pbc="T T T"
Si       2.39622020       0.00000000       0.00000000      -1.73350232      -0.21234477      -0.06101771
Si      -2.00273261       0.71779879       0.00000000       0.92332223      -0.26569062      -0.19339277
Si      -0.59015997      -1.16745007       0.55337033      -0.70113449      -2.59720493       1.92600284
Si       0.19667237       0.44965128      -0.55337033       1.51131458       3.07524031      -1.67159236
4
Lattice="50.0 0.0 0.0 0.0 50.0 0.0 0.0 0.0 50.0" Properties=species:S:1:pos:R:3:forces:R:3 energy=-31541.3914054694 free_energy=-31541.3914054694 pbc="T T T"
Si       2.09403045       0.00000000       0.00000000      -1.39824357      -0.04589118      -0.03141437
Si      -2.08757045       0.09368187       0.00000000       1.30454535      -0.12822619       0.07535732
Si      -0.00043986      -0.31790226       1.13554913      -0.05060581       0.02157371       0.26918175
Si      -0.00602015       0.22422039      -1.13554913       0.14430403       0.15254366      -0.31312470
4
Lattice="50.0 0.0 0.0 0.0 50.0 0.0 0.0 0.0 50.0" Properties=species:S:1:pos:R:3:forces:R:3 energy=-31539.8805990902 free_energy=-31539.8805990902 pbc="T T T"
Si       2.31626972       0.00000000       0.00000000      -2.46671707      -0.49492451      -0.26742725
Si      -1.89406265       0.80782653       0.00000000       1.11861112      -0.47778437      -1.08225151
Si      -0.59994903      -0.72395777       1.13978711       1.45875209       0.09594747      -0.15233145
Si       0.17774196      -0.08386875      -1.13978711      -0.11064614       0.87676141       1.50201022
4
Lattice="50.0 0.0 0.0 0.0 50.0 0.0 0.0 0.0 50.0" Properties=species:S:1:pos:R:3:forces:R:3 energy=-31538.2544319236 free_energy=-31538.261476574 pbc="T T T"
Si       2.66242313       0.00000000       0.00000000      -1.73411127      -0.47134132      -0.32892256
Si      -1.41457926       1.68549731       0.00000000       0.97710136      -1.94298922      -0.01282337
Si      -1.77205127      -0.73193990       0.46407592       1.16772171       0.68606176      -0.61445978
Si       0.52420739      -0.95355742      -0.46407592      -0.41071180       1.72826878       0.95620571
4
Lattice="50.0 0.0 0.0 0.0 50.0 0.0 0.0 0.0 50.0" Properties=species:S:1:pos:R:3:forces:R:3 energy=-31538.4038085566 free_energy=-31538.451159492 pbc="T T T"
Si       2.59541432       0.00000000       0.00000000      -0.54449205      -0.09147450      -0.17877162
Si      -2.03114240       1.28850801       0.00000000       0.79489241      -0.63589927      -0.10699295
Si      -1.17358978      -0.68416480       0.81394549       0.69189070       0.21148847      -0.78673841
Si       0.60931787      -0.60434320      -0.81394549      -0.94229106       0.51588530       1.07250298
4
Lattice="50.0 0.0 0.0 0.0 50.0 0.0 0.0 0.0 50.0" Properties=species:S:1:pos:R:3:forces:R:3 energy=-31537.7838677511 free_energy=-31537.7916365344 pbc="T T T"
Si       2.59826131       0.00000000       0.00000000      -2.12144713      -0.26740612      -0.15277809
Si      -1.67652492       1.68881284       0.00000000       1.02359682      -1.93382447      -0.04797561
Si      -1.06117252      -1.80821058       0.33347734       0.34966220       1.38972219      -0.12962876
Si       0.13943613       0.11939774      -0.33347734       0.74818811       0.81150840       0.33038246
4
Lattice="50.0 0.0 0.0 0.0 50.0 0.0 0.0 0.0 50.0" Properties=species:S:1:pos:R:3:forces:R:3 energy=-31538.8199833563 free_energy=-31538.8516087777 pbc="T T T"
Si       2.92413224       0.00000000       0.00000000      -2.14680781       0.12723634      -0.18015275
Si      -1.85558291       0.95075161       0.00000000       0.63387130       2.75382902      -0.39432791
Si      -1.54295818      -1.11296739       0.19097163       1.23009787      -2.66891510       0.14700188
Si       0.47440885       0.16221578      -0.19097163       0.28283864      -0.21215027       0.42747878
4
Lattice="50.0 0.0 0.0 0.0 50.0 0.0 0.0 0.0 50.0" Properties=species:S:1:pos:R:3:forces:R:3 energy=-31539.3080162621 free_energy=-31539.3188803377 pbc="T T T"
Si       2.67234001       0.00000000       0.00000000      -2.13615204       0.11414297      -0.45703050
Si      -1.98218794       0.83148608       0.00000000       0.91918729       0.64631790      -0.72062011
Si      -1.03059820      -1.09546918       0.62848896       0.46584624      -1.23062725       0.57421970
Si       0.34044613       0.26398310      -0.62848896       0.75111851       0.47016637       0.60343091
4
Lattice="50.0 0.0 0.0 0.0 50.0 0.0 0.0 0.0 50.0" Properties=species:S:1:pos:R:3:forces:R:3 energy=-31539.2047193897 free_energy=-31539.2047194436 pbc="T T T"
Si       1.94559907       0.00000000       0.00000000      -1.96206582      -0.04840476      -1.50518894
Si      -0.81387730       1.51378827       0.00000000       0.63172285      -1.28641152       0.44911569
Si      -0.92523424      -0.83139880       0.99552720      -1.65993157       0.53058196       1.55454132
Si      -0.20648754      -0.68238947      -0.99552720       2.99027454       0.80423432      -0.49846808
4
Lattice="50.0 0.0 0.0 0.0 50.0 0.0 0.0 0.0 50.0" Properties=species:S:1:pos:R:3:forces:R:3 energy=-31539.9210455793 free_energy=-31539.9210455793 pbc="T T T"
Si       2.41394963       0.00000000       0.00000000      -3.02679584       0.00024632      -0.16933424
Si      -2.27911281       0.44373817       0.00000000       2.70375140      -0.50075691      -0.18232566
Si      -0.23471491      -1.21689636       0.48819240       0.00659826      -0.73081361       0.57731314
Si       0.09987808       0.77315819      -0.48819240       0.31644617       1.23132420      -0.22565324
4
Lattice="50.0 0.0 0.0 0.0 50.0 0.0 0.0 0.0 50.0" Properties=species:S:1:pos:R:3:forces:R:3 energy=-31539.4136635042 free_energy=-31539.4136641893 pbc="T T T"
Si       2.61360097       0.00000000       0.00000000      -1.53785846      -0.08947145      -0.16481969
Si      -1.56563431       1.11772264       0.00000000      -1.98640365       0.08483065       0.48797892
Si      -1.33941000      -1.32172322       0.35969263       0.17613497       0.86134429      -0.09075608
Si       0.29144335       0.20400058      -0.35969263       3.34812714      -0.85670349      -0.23240315
4
Lattice="50.0 0.0 0.0 0.0 50.0 0.0 0.0 0.0 50.0" Properties=species:S:1:pos:R:3:forces:R:3 energy=-31537.6954547147 free_energy=-31537.7499615748 pbc="T T T"
Si       2.54535962       0.00000000       0.00000000      -1.73375943      -0.92777136      -0.16393307
Si      -1.46188056       1.90551840       0.00000000       0.41309952      -2.19970184       0.09786100
Si      -1.62515543      -0.55747591       0.27591581       0.71039740       1.37518215      -0.25482773
Si       0.54167637      -1.34804250      -0.27591581       0.61026251       1.75229105       0.32089980
4
Lattice="50.0 0.0 0.0 0.0 50.0 0.0 0.0 0.0 50.0" Properties=species:S:1:pos:R:3:forces:R:3 energy=-31538.4223341623 free_energy=-31538.4666624012 pbc="T T T"
Si       2.45167138       0.00000000       0.00000000      -1.42386666      -0.33378456      -0.45098774
Si      -2.04952663       1.21396262       0.00000000       1.22393575      -1.13077814       0.03708204
Si      -0.84936611      -0.58586913       1.00427446       0.08645282       0.60954331      -0.74767505
Si       0.44722136      -0.62809349      -1.00427446       0.11347809       0.85501940       1.16158075
4
Lattice="50.0 0.0 0.0 0.0 50.0 0.0 0.0 0.0 50.0" Properties=species:S:1:pos:R:3:forces:R:3 energy=-31538.7877457661 free_energy=-31538.8076381578 pbc="T T T"
Si       2.58114702       0.00000000       0.00000000      -1.52049597      -0.28695802      -0.39900802
Si      -1.39192667       1.39764865       0.00000000       1.37616707       1.50186371      -0.91602870
Si      -1.63855883      -0.63954124       0.59210410       0.60343570      -2.52052491       0.09909839
Si       0.44933848      -0.75810740      -0.59210410      -0.45910680       1.30561922       1.21593833
4
Lattice="50.0 0.0 0.0 0.0 50.0 0.0 0.0 0.0 50.0" Properties=species:S:1:pos:R:3:forces:R:3 energy=-31537.7245276514 free_energy=-31537.7392346543 pbc="T T T"
Si       2.56000619       0.00000000       0.00000000      -1.93278375      -0.32819880      -0.08923375
Si      -1.60444328       1.75256350       0.00000000       0.75120215      -1.77928643      -0.01278297
Si      -1.07079180      -1.85970874       0.25617808       0.34134424       1.25264284      -0.05764542
Si       0.11522888       0.10714525      -0.25617808       0.84023737       0.85484239       0.15966214
4
Lattice="50.0 0.0 0.0 0.0 50.0 0.0 0.0 0.0 50.0" Properties=species:S:1:pos:R:3:forces:R:3 energy=-31540.3687046417 free_energy=-31540.3687046417 pbc="T T T"
Si       1.79317705       0.00000000       0.00000000      -1.23459183      -1.28622338      -0.31623084
Si      -1.30570889       1.20002348       0.00000000      -0.42027226      -1.15762078       0.25806100
Si      -0.18846993      -0.75908385       1.22636749       0.41146828       1.45372338      -0.89430287
Si      -0.29899823      -0.44093963      -1.22636749       1.24339581       0.99012078       0.95247271
4
Lattice="50.0 0.0 0.0 0.0 50.0 0.0 0.0 0.0 50.0" Properties=species:S:1:pos:R:3:forces:R:3 energy=-31540.2568426186 free_energy=-31540.2568426186 pbc="T T T"
Si       2.03720118       0.00000000       0.00000000      -1.70242758      -0.77311948      -0.29086603
Si      -1.40041421       1.13284476       0.00000000      -0.25743537      -0.42448951      -0.12384367
Si      -0.64558659      -0.86819319       1.09193489       0.72842179       0.42780198       0.20445650
Si       0.00879962      -0.26465157      -1.09193489       1.23144116       0.76980702       0.21025321
4
Lattice="50.0 0.0 0.0 0.0 50.0 0.0 0.0 0.0 50.0" Properties=species:S:1:pos:R:3:forces:R:3 energy=-31538.7506133671 free_energy=-31538.7506631654 pbc="T T T"
Si       2.61636642       0.00000000       0.00000000      -1.18123305      -0.10386802      -0.32872069
Si      -1.71955334       1.39339760       0.00000000       1.34681818      -1.43541821      -0.15543836
Si      -1.41757092      -0.91657064       0.73859948       0.81984218       0.72383412      -0.86363611
Si       0.52075785      -0.47682696      -0.73859948      -0.98542731       0.81545211       1.34779516
4
Lattice="50.0 0.0 0.0 0.0 50.0 0.0 0.0 0.0 50.0" Properties=species:S:1:pos:R:3:forces:R:3 energy=-31539.3782570622 free_energy=-31539.3782572292 pbc="T T T"
Si       2.60128960       0.00000000       0.00000000      -2.30932017      -0.12008662      -0.64430237
Si      -1.70053726       1.09072318       0.00000000       0.77763787       0.03013897      -0.55187428
Si      -1.17780565      -1.01100541       0.76286910       0.16777082      -0.62449674       0.34805379
Si       0.27705332      -0.07971777      -0.76286910       1.36391148       0.71444438       0.84812286
4
Lattice="50.0 0.0 0.0 0.0 50.0 0.0 0.0 0.0 50.0" Properties=species:S:1:pos:R:3:forces:R:3 energy=-31539.3186503965 free_energy=-31539.3235423269 pbc="T T T"
Si       2.52267968       0.00000000       0.00000000      -0.78154164      -0.10963005      -0.05280978
Si      -1.72670080       0.75925220       0.00000000      -1.65908724       3.99124933      -1.05334763
Si      -1.15442355      -1.14575621       0.54599763       1.74542918      -3.68095256       0.99722330
Si       0.35844466       0.38650401      -0.54599763       0.69519970      -0.20066671       0.10893411
4
Lattice="50.0 0.0 0.0 0.0 50.0 0.0 0.0 0.0 50.0" Properties=species:S:1:pos:R:3:forces:R:3 energy=-31539.3247810252 free_energy=-31539.3247810724 pbc="T T T"
Si       2.67658984       0.00000000       0.00000000      -2.14945575      -0.02867333      -0.41765691
Si      -1.68964398       1.21458095       0.00000000       0.96035319      -1.41579628       0.01107885
Si      -1.30566179      -1.23413325       0.55996976       0.05986403       1.02266526      -0.25130563
Si       0.31871593       0.01955230      -0.55996976       1.12923853       0.42180435       0.65788370
4
Lattice="50.0 0.0 0.0 0.0 50.0 0.0 0.0 0.0 50.0" Properties=species:S:1:pos:R:3:forces:R:3 energy=-31539.001914664 free_energy=-31539.001914664 pbc="T T T"
Si       2.25640543       0.00000000       0.00000000      -1.13983999      -0.34066498      -0.14007442
Si      -1.51797450       1.47440731       0.00000000       1.20985163      -2.36736397      -0.09544097
Si      -0.91944066      -1.37112252       0.89986862       0.43285415       1.88363149      -0.88198628
Si       0.18100973      -0.10328479      -0.89986862      -0.50286578       0.82439746       1.11750167
4
Lattice="50.0 0.0 0.0 0.0 50.0 0.0 0.0 0.0 50.0" Properties=species:S:1:pos:R:3:forces:R:3 energy=-31539.1805741082 free_energy=-31539.1805741147 pbc="T T T"
Si       2.51798870       0.00000000       0.00000000      -2.21372782      -0.28279988      -0.75525686
Si      -1.60570761       1.21131661       0.00000000       1.04597270      -0.12353676      -0.80086138
Si      -1.21489612      -0.85225095       0.89313891       0.59506472      -0.62272069      -0.10863685
Si       0.30261503      -0.35906566      -0.89313891       0.57269041       1.02905733       1.66475509
4
Lattice="50.0 0.0 0.0 0.0 50.0 0.0 0.0 0.0 50.0" Properties=species:S:1:pos:R:3:forces:R:3 energy=-31539.1558168437 free_energy=-31539.1771071531 pbc="T T T"
Si       2.54637773       0.00000000       0.00000000      -2.54852283       0.18281292      -0.00791474
Si      -2.17983971       0.54204894       0.00000000       1.67004768      -0.08971918      -0.00894916
Si      -0.54603311      -1.23248179       0.01593439      -1.19574711      -4.36471103       0.07509805
Si       0.17949510       0.69043285      -0.01593439       2.07422225       4.27161729      -0.05823415
4
Lattice="50.0 0.0 0.0 0.0 50.0 0.0 0.0 0.0 50.0" Properties=species:S:1:pos:R:3:forces:R:3 energy=-31539.611312324 free_energy=-31539.611312324 pbc="T T T"
Si       2.07611431       0.00000000       0.00000000      -1.96811489      -0.65999283      -0.89726030
Si      -1.21148023       1.36032072       0.00000000       0.46634554      -1.62338442      -0.17505159
Si      -0.87319709      -0.88002254       1.10122474       0.22800978       0.90057237      -0.55565642
Si       0.00856300      -0.48029819      -1.10122474       1.27375957       1.38280487       1.62796831
4
Lattice="50.0 0.0 0.0 0.0 50.0 0.0 0.0 0.0 50.0" Properties=species:S:1:pos:R:3:forces:R:3 energy=-31538.8334304658 free_energy=-31538.8334308312 pbc="T T T"
Si       2.64497852       0.00000000       0.00000000      -2.37733281      -0.00978300      -0.21942013
Si      -2.09197789       1.10632944       0.00000000       2.28929182      -1.76156408      -0.10411376
Si      -0.81949146      -1.49783212       0.38991430      -0.33057792       0.86518304       0.01453387
Si       0.26649083       0.39150268      -0.38991430       0.41861891       0.90616405       0.30900002
4
Lattice="50.0 0.0 0.0 0.0 50.0 0.0 0.0 0.0 50.0" Properties=species:S:1:pos:R:3:forces:R:3 energy=-31538.104601302 free_energy=-31538.106456085 pbc="T T T"
Si       2.27292296       0.00000000       0.00000000       0.22200014       0.01223556       0.23443529
Si      -1.34309437       1.80930178       0.00000000       0.77524955      -2.08269095       0.06372631