5
Lattice="50.0 0.0 0.0 0.0 50.0 0.0 0.0 0.0 50.0" Properties=species:S:1:pos:R:3:forces:R:3 energy=-39424.6424361391 free_energy=-39424.6439698055 pbc="T T T"
Si       2.64503234       0.00000000       0.00000000      -2.36903341       0.24083783      -0.09566554
Si      -1.73144579       1.69346424       0.00000000       1.77178722      -1.54644343       0.32883412
Si      -0.91786036      -1.46794660       0.88294753       0.06823552       0.82287270      -1.24187220
Si      -0.34907787      -0.81360792      -1.40516504       0.12257732      -0.44087373       0.81665395
Si       0.35335168       0.58809028       0.52221751       0.40643335       0.92360663       0.19204968
5
Lattice="50.0 0.0 0.0 0.0 50.0 0.0 0.0 0.0 50.0" Properties=species:S:1:pos:R:3:forces:R:3 energy=-39424.9775905809 free_energy=-39424.9902262328 pbc="T T T"
Si       2.73329534       0.00000000       0.00000000      -1.71148045       0.22568679       0.50174466
Si      -0.87178750       1.85492280       0.00000000      -0.23328685       0.86223165       0.31107499
Si      -0.82476837      -1.81319550       0.46377765      -1.67323905      -1.12974331      -0.30753343
Si      -1.38812200      -0.00803946      -1.08974156       0.04925277      -0.95941220      -0.13101842
Si       0.35138254      -0.03368785       0.62596391       3.56875358       1.00123706      -0.37426781
5
Lattice="50.0 0.0 0.0 0.0 50.0 0.0 0.0 0.0 50.0" Properties=species:S:1:pos:R:3:forces:R:3 energy=-39424.3200700602 free_energy=-39424.3200700603 pbc="T T T"
Si       2.68250560       0.00000000       0.00000000      -2.05057465      -0.84700662      -0.69571393
Si      -1.09646544       2.22136507       0.00000000       0.26102254      -1.83821017      -0.34680432
Si      -0.39492702      -1.30718216       1.20595656      -0.41589882       0.25914050       0.25431397
Si      -1.71120840      -0.02877171      -0.37108313       0.03472056       0.76295720       0.51549841
Si       0.52009526      -0.88541120      -0.83487342       2.17073037       1.66311909       0.27270587
5
Lattice="50.0 0.0 0.0 0.0 50.0 0.0 0.0 0.0 50.0" Properties=species:S:1:pos:R:3:forces:R:3 energy=-39424.9556383195 free_energy=-39424.9556383345 pbc="T T T"
Si       2.48418662       0.00000000       0.00000000      -2.51422297       0.02145758      -0.36667383
Si      -2.00687987       0.91321729       0.00000000       0.46256328      -1.31432556      -0.26316721
Si      -0.87376250      -1.55115407       1.24829500      -0.93286549       0.01032994      -0.43684775
Si       0.29921175       0.32494237      -1.83244047       0.04433000      -0.01278988       1.82746631
Si       0.09724401       0.31299441       0.58414547       2.94019518       1.29532791      -0.76077752
5
Lattice="50.0 0.0 0.0 0.0 50.0 0.0 0.0 0.0 50.0" Properties=species:S:1:pos:R:3:forces:R:3 energy=-39425.1246349794 free_energy=-39425.1247186523 pbc="T T T"
Si       2.92451307       0.00000000       0.00000000      -2.77043628      -0.37105189       0.17993644
Si      -1.82034661       1.23073194       0.00000000       0.51196723       1.27076124      -0.35724958
Si      -1.87956590      -0.88453511       0.54813291       1.88969268      -1.16714254       0.16378809
Si       0.16591097       0.35002412      -1.16938843      -0.31514657       1.32157791      -2.14682894
Si       0.60948848      -0.69622094       0.62125552       0.68392294      -1.05414471       2.16035399
5
Lattice="50.0 0.0 0.0 0.0 50.0 0.0 0.0 0.0 50.0" Properties=species:S:1:pos:R:3:forces:R:3 energy=-39425.4613580668 free_energy=-39425.4613580668 pbc="T T T"
Si       2.57134972       0.00000000       0.00000000      -1.62074261      -0.04241782      -0.38776710
Si      -0.53247307       1.99626826       0.00000000       0.25229053      -1.81847822      -0.03054820
Si      -0.65460051      -1.66454881       0.99266308       0.44209712       0.74268077      -0.24504578
Si      -1.72956043      -0.11896677      -0.34180722      -3.95406200       0.75154301       0.38301857
Si       0.34528430      -0.21275268      -0.65085586       4.88041695       0.36667227       0.28034251
5
Lattice="50.0 0.0 0.0 0.0 50.0 0.0 0.0 0.0 50.0" Properties=species:S:1:pos:R:3:forces:R:3 energy=-39424.8758459051 free_energy=-39424.8758459136 pbc="T T T"
Si       2.79132993       0.00000000       0.00000000      -0.30535530      -0.28985174      -0.00650210
Si      -1.27354839       2.30509734       0.00000000       0.09711178      -2.51710959      -0.09704023
Si      -0.26765224      -2.18881618       0.31034972      -0.31365635       1.76761062      -0.30153991
Si      -1.83821770      -0.09758357      -0.08782086       1.41664212       0.71954543       0.18423719
Si       0.58808840      -0.01869759      -0.22252886      -0.89474226       0.31980527       0.22084504
5
Lattice="50.0 0.0 0.0 0.0 50.0 0.0 0.0 0.0 50.0" Properties=species:S:1:pos:R:3:forces:R:3 energy=-39426.8314193753 free_energy=-39426.8314193753 pbc="T T T"
Si       2.58306184       0.00000000       0.00000000      -2.88105550       0.07292519      -0.06270806
Si      -1.72810748       1.07400140       0.00000000       0.56642424       1.82010463       0.07421398
Si      -1.52634206      -1.08535534       0.11137865      -0.23419416      -1.99396390       0.61427469
Si       0.27757820      -0.63297598      -1.09971542       1.89251180       0.33348444      -0.13430495
Si       0.39380949       0.64432992       0.98833677       0.65631362      -0.23255035      -0.49147566
5
Lattice="50.0 0.0 0.0 0.0 50.0 0.0 0.0 0.0 50.0" Properties=species:S:1:pos:R:3:forces:R:3 energy=-39424.1844940688 free_energy=-39424.2394571912 pbc="T T T"
Si       2.64725416       0.00000000       0.00000000       1.68918007       0.60159309       1.42544061
Si      -1.29390915       1.53108014       0.00000000       0.69889442      -0.52036205      -0.14538751
Si      -1.06848866      -0.25471108       1.65989935       0.20413577       0.19019775       0.13533998
Si      -1.28290418      -0.84180224      -0.49515698       0.89805304       0.00566022      -0.68175156
Si       0.99804784      -0.43456682      -1.16474238      -3.49026330      -0.27708900      -0.73364152
5
Lattice="50.0 0.0 0.0 0.0 50.0 0.0 0.0 0.0 50.0" Properties=species:S:1:pos:R:3:forces:R:3 energy=-39426.5361149818 free_energy=-39426.5361149818 pbc="T T T"
Si       2.44772288       0.00000000       0.00000000      -1.38212208       0.10903584       0.79199856
Si      -1.57656024       1.31881225       0.00000000       0.36200723       2.43206272      -0.15817243
Si      -1.63422822      -0.79332015       0.12191968      -0.77939404      -3.23520514      -0.83901479
Si       0.53043726      -0.61545436      -1.14808819      -0.78396083      -0.23670563      -0.50612233
Si       0.23262832       0.08996226       1.02616851       2.58346971       0.93081220       0.71131099
5
Lattice="50.0 0.0 0.0 0.0 50.0 0.0 0.0 0.0 50.0" Properties=species:S:1:pos:R:3:forces:R:3 energy=-39425.6006663632 free_energy=-39425.6006663632 pbc="T T T"
Si       2.32678543       0.00000000       0.00000000      -2.44663436      -0.07042475       0.22540586
Si      -2.22603062       0.53918792       0.00000000       2.31229887      -0.78204069      -0.22971161
Si       0.04181410      -0.78977507       1.70608669       0.23344715       1.13930470      -1.65840044
Si      -0.28763771      -0.76501835      -1.68803490      -0.08211020       1.09790096       1.54951573
Si       0.14506880       1.01560551      -0.01805179      -0.01700145      -1.38474022       0.11319046
5
Lattice="50.0 0.0 0.0 0.0 50.0 0.0 0.0 0.0 50.0" Properties=species:S:1:pos:R:3:forces:R:3 energy=-39425.7310503545 free_energy=-39425.7310503545 pbc="T T T"
Si       2.55480170       0.00000000       0.00000000      -2.80552624       0.64957376       0.13379976
Si      -2.24661412       0.30676999       0.00000000       2.60648821      -0.54525379       0.07487335
Si      -0.31452687      -0.99271148       1.24171559      -0.15096379       1.05350571      -0.11006373
Si      -0.39696520      -0.45586576      -1.47297985      -0.09846551       0.72449168       0.13391817
Si       0.40330449       1.14180725       0.23126426       0.44846733      -1.88231735      -0.23252754
5
Lattice="50.0 0.0 0.0 0.0 50.0 0.0 0.0 0.0 50.0" Properties=species:S:1:pos:R:3:forces:R:3 energy=-39425.6457766055 free_energy=-39425.6457766055 pbc="T T T"
Si       3.00166330       0.00000000       0.00000000      -1.59782823       0.07384543      -0.18072271
Si      -1.29612261       1.45303006       0.00000000       0.12265723       2.15005985      -1.12141276
Si      -1.53648652      -0.36091678       1.08411600       0.16360711      -2.06893586       0.62346095
Si      -0.87579492      -1.44132039      -0.89880081       0.52099692       0.54340801       0.54983578
Si       0.70674074       0.34920711      -0.18531519       0.79056697      -0.69837744       0.12883874
5
Lattice="50.0 0.0 0.0 0.0 50.0 0.0 0.0 0.0 50.0" Properties=species:S:1:pos:R:3:forces:R:3 energy=-39425.6217614965 free_energy=-39425.6330612293 pbc="T T T"
Si       2.41202699       0.00000000       0.00000000      -1.32009308      -0.19238190       0.21373896
Si      -1.10316742       1.83452649       0.00000000       0.75266059      -2.15917199       0.22322089
Si      -1.31604566      -0.39016896       1.14222431      -0.20861024       1.15309017       0.37151381
Si      -0.51104725      -0.11611366      -1.35414905      -0.43280152       1.08296921      -1.20724623
Si       0.51823334      -1.32824387       0.21192474       1.20884425       0.11549451       0.39877256
5
Lattice="50.0 0.0 0.0 0.0 50.0 0.0 0.0 0.0 50.0" Properties=species:S:1:pos:R:3:forces:R:3 energy=-39426.0742388358 free_energy=-39426.0746249732 pbc="T T T"
Si       2.44752814       0.00000000       0.00000000      -0.57372197       1.02290590       0.90210428
Si      -2.07892166       1.23125914       0.00000000       1.66415569      -1.44671988       0.25352779
Si      -1.12235706      -1.16687093       0.33730793      -2.70655088      -0.90345291       0.30439774
Si       0.57355166      -0.74058916      -0.97253224       0.18052408      -1.83072169      -3.18468707
Si       0.18019892       0.67620096       0.63522431       1.43559308       3.15798858       1.72465727
5
Lattice="50.0 0.0 0.0 0.0 50.0 0.0 0.0 0.0 50.0" Properties=species:S:1:pos:R:3:forces:R:3 energy=-39427.13149043 free_energy=-39427.13149043 pbc="T T T"
Si       2.41642117       0.00000000       0.00000000      -0.57259454       0.11633304      -0.64148432
Si      -1.49108641       1.38556083       0.00000000       1.09499665      -0.86853318      -0.02522646
Si      -1.77475200      -0.90853122       0.37910447       0.77549762       0.02047940      -0.10353244
Si       0.33889743       0.28008337      -1.28639239       0.06635378       0.28714448       0.54550280
Si       0.51051982      -0.75711297       0.90728792      -1.36425352       0.44457625       0.22474043
5
Lattice="50.0 0.0 0.0 0.0 50.0 0.0 0.0 0.0 50.0" Properties=species:S:1:pos:R:3:forces:R:3 energy=-39425.1477288712 free_energy=-39425.1493937698 pbc="T T T"
Si       2.50931872       0.00000000       0.00000000       0.94330184      -0.28204379       0.81604351
Si      -2.12231846       0.86859835       0.00000000       1.90171874      -0.92338951       0.18533034
Si      -1.54631455      -1.47141127       0.38122177       0.48337164       1.23048291      -0.45225894
Si       0.72063332       0.76420021      -1.08122648      -1.47863377       2.73400854      -5.76218453
Si       0.43868098      -0.16138729       0.70000472      -1.84975845      -2.75905814       5.21306961
5
Lattice="50.0 0.0 0.0 0.0 50.0 0.0 0.0 0.0 50.0" Properties=species:S:1:pos:R:3:forces:R:3 energy=-39424.798797801 free_energy=-39424.7987979493 pbc="T T T"
Si       2.59214837       0.00000000       0.00000000      -2.25296238       0.38086400      -0.06386131
Si      -1.79831325       1.45401216       0.00000000       1.34697553      -1.36568548      -0.55408330
Si      -0.41709511      -1.56459125       1.39992819       0.67534722       1.40673645      -1.80670300
Si      -0.86526447      -0.96695069      -0.91045959      -0.43761239       0.44707124       1.29426851
Si       0.48852447       1.07752979      -0.48946860       0.66825201      -0.86898621       1.13037910
5
Lattice="50.0 0.0 0.0 0.0 50.0 0.0 0.0 0.0 50.0" Properties=species:S:1:pos:R:3:forces:R:3 energy=-39424.832053255 free_energy=-39424.8320532551 pbc="T T T"
Si       2.37875724       0.00000000       0.00000000      -1.99305990      -0.23662007      -0.22819120
Si      -1.09710567       1.99749205       0.00000000       0.44982079      -1.82553039      -0.03625522
Si      -0.31064795      -1.12909708       1.57130472       0.79958247       0.57580296      -0.80609990
Si       0.52678883      -0.52134501      -1.38318429       0.71404521       0.28565942       1.04675453
Si      -1.49779245      -0.34704996      -0.18812043       0.02961145       1.20068809       0.02379178
5
Lattice="50.0 0.0 0.0 0.0 50.0 0.0 0.0 0.0 50.0" Properties=species:S:1:pos:R:3:forces:R:3 energy=-39423.8063681805 free_energy=-39423.8096004501 pbc="T T T"
Si       2.50765727       0.00000000       0.00000000      -1.57232576      -0.70982364      -0.47516463
Si      -0.70218577       2.39434357       0.00000000      -0.20840470      -2.38698565      -0.49336951
Si      -0.72311462      -1.50761596       1.33306833       0.17062839       0.99290888      -1.55047745
Si      -1.53959555       0.12662618      -0.62633376      -0.51081823       1.55760091       1.19157369
Si       0.45723867      -1.01335380      -0.70673457       2.12092030       0.54629951       1.32743791
5
Lattice="50.0 0.0 0.0 0.0 50.0 0.0 0.0 0.0 50.0" Properties=species:S:1:pos:R:3:forces:R:3 energy=-39424.1686744525 free_energy=-39424.2123991751 pbc="T T T"
Si       2.54590088       0.00000000       0.00000000      -1.02174383      -0.38180137      -0.07514463
Si      -1.10405042       1.99259687       0.00000000      -0.15072644      -1.39542650      -0.35002457
Si      -1.45433597      -0.08374227       1.32655887       0.35347614       0.20402034       0.87413069
Si       0.97799700      -1.62142425      -0.48271683      -0.55540715       0.73199543       0.11314689
Si      -0.96551149      -0.28743035      -0.84384204       1.37440129       0.84121210      -0.56210837
5
Lattice="50.0 0.0 0.0 0.0 50.0 0.0 0.0 0.0 50.0" Properties=species:S:1:pos:R:3:forces:R:3 energy=-39425.2887944857 free_energy=-39425.2887958755 pbc="T T T"
Si       2.76713470       0.00000000       0.00000000      -2.39941563       0.04887605       0.65630955
Si      -1.45287823       1.33412709       0.00000000       1.24243006       0.39447615       0.11716829
Si      -1.25552075      -1.26368883       0.42654540       0.96325902      -0.66253792       0.16214833
Si      -0.65310797      -0.15750528      -1.54337270       0.00431416       0.05460352       0.21677182
Si       0.59437226       0.08706702       1.11682730       0.18941239       0.16458219      -1.15239800
5
Lattice="50.0 0.0 0.0 0.0 50.0 0.0 0.0 0.0 50.0" Properties=species:S:1:pos:R:3:forces:R:3 energy=-39424.052992246 free_energy=-39424.0529930335 pbc="T T T"
Si       2.48469604       0.00000000       0.00000000      -1.05530608       0.07850255      -0.01815682
Si      -1.91661700       1.49216135       0.00000000       0.72960083      -1.38152763       0.48594019
Si      -1.09295888       0.47625551       2.06762908       0.02213538       0.20067237      -2.22406525
Si       1.33579854      -1.62357332      -1.01479929      -1.39505778       0.48854727      -0.16631394
Si      -0.81091871      -0.34484354      -1.05282979       1.69862765       0.61380544       1.92259581
5
Lattice="50.0 0.0 0.0 0.0 50.0 0.0 0.0 0.0 50.0" Properties=species:S:1:pos:R:3:forces:R:3 energy=-39423.6075301779 free_energy=-39423.6497191023 pbc="T T T"
Si       2.83657962       0.00000000       0.00000000      -1.09859512      -0.56811097      -0.53333204
Si      -1.66659672       1.55194877       0.00000000       0.29508543      -1.70865149       0.20232248
Si      -1.07860903       0.18165197       1.90434934       0.20910622       0.15350964      -1.47320433
Si       1.09211505      -0.98872758      -1.17339381       0.28689380       0.62643090       0.98131329
Si      -1.18348892      -0.74487315      -0.73095553       0.30750966       1.49682192       0.82290060
5
Lattice="50.0 0.0 0.0 0.0 50.0 0.0 0.0 0.0 50.0" Properties=species:S:1:pos:R:3:forces:R:3 energy=-39425.5639925319 free_energy=-39425.5639925319 pbc="T T T"
Si       2.87653668       0.00000000       0.00000000      -1.72759877      -0.09032396       0.17440481
Si      -0.98245106       1.95238336       0.00000000       0.56289586      -1.87167757       0.22051105
Si      -1.89659562      -0.17730113       0.59864272       0.94134794       0.27516078      -0.60829792
Si      -0.58084679      -1.54463674      -0.96933853      -1.03035622      -0.16623190      -0.39840713
Si       0.58335679      -0.23044548       0.37069582       1.25371118       1.85307265       0.61178918
5
Lattice="50.0 0.0 0.0 0.0 50.0 0.0 0.0 0.0 50.0" Properties=species:S:1:pos:R:3:forces:R:3 energy=-39425.9116067498 free_energy=-39425.9116067498 pbc="T T T"
Si       2.23601612       0.00000000       0.00000000      -2.34163247       0.05590933       0.43083294
Si      -1.98178535       0.32075348       0.00000000      -1.86338323      -0.93278659      -0.39991482
Si       0.11435720      -1.21403759       1.47055505       0.40098462       1.07333771      -1.40715143
Si      -0.36839890      -0.05983086      -1.86204669       0.51073667       0.19701985       1.81082876
Si      -0.00018906       0.95311497       0.39149164       3.29329442      -0.39348029      -0.43459545
5
Lattice="50.0 0.0 0.0 0.0 50.0 0.0 0.0 0.0 50.0" Properties=species:S:1:pos:R:3:forces:R:3 energy=-39426.4306626183 free_energy=-39426.4388050307 pbc="T T T"
Si       2.44670013       0.00000000       0.00000000      -1.22742149      -0.97440241      -0.03365148
Si      -1.86999278       1.53191420       0.00000000       0.76805653       0.10570134      -0.57659116
Si      -1.35486094      -0.51472865       0.84699440       0.79860157      -0.03852796      -0.46352204
Si       0.53916474      -1.58057915      -0.04034591       1.35293542      -0.04508430       0.35413144
Si       0.23898885       0.56339361      -0.80664848      -1.69217202       0.95231334       0.71963324
5
Lattice="50.0 0.0 0.0 0.0 50.0 0.0 0.0 0.0 50.0" Properties=species:S:1:pos:R:3:forces:R:3 energy=-39425.0364281558 free_energy=-39425.0880516841 pbc="T T T"
Si       2.58233349       0.00000000       0.00000000      -2.07359626       0.10004947      -0.01538597
Si      -1.50552542       1.71089477       0.00000000       0.66786842      -1.36508829       0.25287655
Si      -1.60446051      -1.30325674       0.13977193       0.56469578       0.93326142      -0.79938442
Si       0.58004378      -0.55761165      -1.18666426      -0.18516643      -0.21331861       0.85428489
Si      -0.05239134       0.14997363       1.04689233       1.02619849       0.54509601      -0.29239105
5
Lattice="50.0 0.0 0.0 0.0 50.0 0.0 0.0 0.0 50.0" Properties=species:S:1:pos:R:3:forces:R:3 energy=-39425.546873045 free_energy=-39425.5469679086 pbc="T T T"
Si       2.62002478       0.00000000       0.00000000      -2.01610290      -1.04788583      -0.10349736
Si      -1.67948781       1.73309088       0.00000000      -0.14260172      -0.58928782      -0.48873221
Si       0.75017315      -1.60730692       0.24668063       0.02107176       1.62348222      -0.42090321
Si      -1.22595375      -0.30488430       1.01692417       1.21849260      -0.07404663      -0.42017830
Si      -0.46475638       0.17910034      -1.26360480       0.91914025       0.08773807       1.43331108
5
Lattice="50.0 0.0 0.0 0.0 50.0 0.0 0.0 0.0 50.0" Properties=species:S:1:pos:R:3:forces:R:3 energy=-39425.0163399401 free_energy=-39425.0163399401 pbc="T T T"
Si       2.61969050       0.00000000       0.00000000      -2.35414033      -0.56547746      -0.44703736
Si      -1.13763800       2.04687760       0.00000000       0.60482378      -2.06182579      -0.38057635
Si      -0.05043377      -1.56755002       0.97011339       0.09196549      -0.12459003       0.71863297
Si      -1.73950463      -0.25655215      -0.21507861      -3.04362833       0.43487636       1.00847173
Si       0.30788590      -0.22277544      -0.75503478       4.70097938       2.31701691      -0.89949099
5
Lattice="50.0 0.0 0.0 0.0 50.0 0.0 0.0 0.0 50.0" Properties=species:S:1:pos:R:3:forces:R:3 energy=-39425.1253783851 free_energy=-39425.1253783851 pbc="T T T"
Si       2.69375665       0.00000000       0.00000000      -1.36237633       0.12116291       0.32639411
Si      -1.29676134       1.80865086       0.00000000       1.24682643      -1.60637814      -0.29166411
Si      -1.45691642      -1.49674628       0.25869139       0.33284573      -0.15910785       1.00897240
Si      -0.56094360      -0.13387178      -1.20274270      -0.12022677       1.58394295      -0.84583043
Si       0.62086471      -0.17803279       0.94405131      -0.09706906       0.06038013      -0.19787197
5
Lattice="50.0 0.0 0.0 0.0 50.0 0.0 0.0 0.0 50.0" Properties=species:S:1:pos:R:3:forces:R:3 energy=-39425.1775136255 free_energy=-39425.177538835 pbc="T T T"
Si       3.01751528       0.00000000       0.00000000      -2.36846526       0.33848777      -0.05475568
Si      -1.53979376       1.42669263       0.00000000       0.33153013      -0.36871958       0.39558410
Si      -1.58432940      -0.69821292       0.99955413       0.12166985       0.67665570      -0.15404198
Si      -0.46957588      -1.14119788      -0.96067722      -1.46426338      -3.16440559      -1.94578990
Si       0.57618375       0.41271817      -0.03887691       3.37952866       2.51798170       1.75900346
5
Lattice="50.0 0.0 0.0 0.0 50.0 0.0 0.0 0.0 50.0" Properties=species:S:1:pos:R:3:forces:R:3 energy=-39424.6228325832 free_energy=-39424.6737548005 pbc="T T T"
Si       2.18770621       0.00000000       0.00000000       0.20422372       1.26681471      -0.42570756
Si      -1.59393014       1.17678710       0.00000000      -0.85007046       0.47971216       1.62416598
Si      -0.79934656      -0.50537253       1.66421765       0.32596572      -0.14375958      -1.20013406
Si      -0.24403054       0.61215076      -1.51196654       1.72089840      -0.41169103      -1.02921691
Si       0.44960102      -1.28356533      -0.15225111      -1.40101738      -1.19107626       1.03089254
5
Lattice="50.0 0.0 0.0 0.0 50.0 0.0 0.0 0.0 50.0" Properties=species:S:1:pos:R:3:forces:R:3 energy=-39427.1107287099 free_energy=-39427.1107287099 pbc="T T T"
Si       2.27857879       0.00000000       0.00000000      -0.04367782      -0.43182829      -0.65831286
Si      -1.89915905       0.99425516       0.00000000       1.18259834      -0.53216206       0.70926890
Si      -0.95685855      -1.16653612       0.60010543      -1.67046535      -0.37578324       0.80302236
Si       0.20180539      -0.70258151      -1.20011514       1.68669523      -0.22598958      -1.24495771
Si       0.37563341       0.87486247       0.60000971      -1.15515041       1.56576317       0.39097930
5
Lattice="50.0 0.0 0.0 0.0 50.0 0.0 0.0 0.0 50.0" Properties=species:S:1:pos:R:3:forces:R:3 energy=-39423.9593173449 free_energy=-39423.9593173449 pbc="T T T"
Si       3.12640112       0.00000000       0.00000000      -1.38392093      -0.03167843      -0.34115613
Si      -1.40185228       1.95716918       0.00000000       0.71741265      -2.13468077      -0.50505114
Si      -1.25528985      -1.48182352       1.39250792       0.55995260       0.91648563      -1.28427415
Si      -1.40833746      -0.41174928      -0.70261656       0.13918761       1.02139122       1.08620985
Si       0.93907848      -0.06359637      -0.68989137      -0.03263194       0.22848236       1.04427157
5
Lattice="50.0 0.0 0.0 0.0 50.0 0.0 0.0 0.0 50.0" Properties=species:S:1:pos:R:3:forces:R:3 energy=-39425.7576403668 free_energy=-39425.7576403668 pbc="T T T"
Si       2.38196624       0.00000000       0.00000000      -2.17043053      -0.58664783       0.19417592
Si      -0.98261982       1.99671547       0.00000000      -0.00357058       0.62872694      -0.17370766
Si      -0.17284734      -2.05522642       0.13467775       0.63343931       0.95487913      -0.51578141
Si      -1.29668256      -0.16872663      -0.97588390       0.44564619      -0.81560014       0.13583068
Si       0.07018348       0.22723757       0.84120615       1.09491561      -0.18135809       0.35948246
5
Lattice="50.0 0.0 0.0 0.0 50.0 0.0 0.0 0.0 50.0" Properties=species:S:1:pos:R:3:forces:R:3 energy=-39424.5398225711 free_energy=-39424.5449217157 pbc="T T T"
Si       2.86044987       0.00000000       0.00000000      -0.84698782      -0.16781923      -0.31466534
Si      -1.25115932       2.39672551       0.00000000       0.18487783      -2.14052317       0.08705072
Si      -0.83589172      -2.13459412       0.22951412       0.89639895       0.03402566      -0.32238250
Si      -1.41936055      -0.01157077       0.24113320      -2.00117151       2.67690881       0.35062152
Si       0.64596173      -0.25056061      -0.47064732       1.76688255      -0.40259207       0.19937560
5
Lattice="50.0 0.0 0.0 0.0 50.0 0.0 0.0 0.0 50.0" Properties=species:S:1:pos:R:3:forces:R:3 energy=-39425.1298136243 free_energy=-39425.1425927346 pbc="T T T"
Si       2.78366564       0.00000000       0.00000000      -1.73653352       0.03516489       0.70552511
Si      -1.15183773       1.97384454       0.00000000       0.37124077      -1.27798621       0.16716012
Si      -0.86278979      -1.95075413       0.35292907       0.08907655       0.74083346       0.02158646
Si      -1.20749249      -0.12694556      -1.00983756      -0.70800816       0.17976262      -0.41871461
Si       0.43845437       0.10385515       0.65690849       1.98422437       0.32222524      -0.47555709
5
Lattice="50.0 0.0 0.0 0.0 50.0 0.0 0.0 0.0 50.0" Properties=species:S:1:pos:R:3:forces:R:3 energy=-39423.2860792682 free_energy=-39423.2861123487 pbc="T T T"
Si       3.04384362       0.00000000       0.00000000      -1.84428687      -1.06125176       0.15466236
Si      -0.93997289       2.64272812       0.00000000      -0.04110842      -0.68889896      -0.05578313
Si      -1.43519076      -1.82920307       0.22054361       0.74442142       1.00161342      -0.21578675
Si      -1.67071186       0.55356305      -0.45594466       1.28215204      -1.01117243       0.52518666
Si       1.00203189      -1.36708811       0.23540105      -0.14117816       1.75970972      -0.40827914
5
Lattice="50.0 0.0 0.0 0.0 50.0 0.0 0.0 0.0 50.0" Properties=species:S:1:pos:R:3:forces:R:3 energy=-39424.5292640436 free_energy=-39424.5292640827 pbc="T T T"
Si       2.66332339       0.00000000       0.00000000      -2.24337848      -0.60711902       0.21424399
Si      -1.26127718       1.99475548       0.00000000       1.01090888       0.44639425       0.40702815
Si       0.20672300      -2.00941020       1.12166930       0.24151046       1.41393431      -0.98259892
Si      -1.91415070       0.09343109      -0.78499692      -0.76395465      -1.61835680      -0.14206754
Si       0.30538149      -0.07877637      -0.33667238       1.75491378       0.36514726       0.50339433
5
Lattice="50.0 0.0 0.0 0.0 50.0 0.0 0.0 0.0 50.0" Properties=species:S:1:pos:R:3:forces:R:3 energy=-39426.4636010888 free_energy=-39426.4771009473 pbc="T T T"
Si       2.29725259       0.00000000       0.00000000      -1.53212154       0.05868151      -0.44685823
Si      -1.32190421       1.38767876       0.00000000       0.29412640      -0.48610816       1.14480996
Si      -1.39827030      -1.27651507       0.00623473      -0.70312491       0.04176659      -0.24070782
Si       0.31459009       0.06192742       1.17313323       0.12737280       1.15813025       1.25474195
Si       0.10833184      -0.17309110      -1.17936796       1.81374725      -0.77247019      -1.71198585
5
Lattice="50.0 0.0 0.0 0.0 50.0 0.0 0.0 0.0 50.0" Properties=species:S:1:pos:R:3:forces:R:3 energy=-39425.9460667213 free_energy=-39425.9460667213 pbc="T T T"
Si       2.53098255       0.00000000       0.00000000       1.58501395       1.64335711      -0.12696723
Si      -2.21065393       1.21138065       0.00000000       0.17653795       1.59296802      -0.32054717
Si      -1.36958984      -0.67068063       0.50923518       0.33377583      -3.17537928       0.17210667
Si       0.87782839      -1.23739882      -0.24720945      -1.54569472      -4.89331558       0.70404367
Si       0.17143283       0.69669880      -0.26202573      -0.54963301       4.83236973      -0.42863594
5
Lattice="50.0 0.0 0.0 0.0 50.0 0.0 0.0 0.0 50.0" Properties=species:S:1:pos:R:3:forces:R:3 energy=-39425.0246524995 free_energy=-39425.0265231084 pbc="T T T"
Si       2.63661892       0.00000000       0.00000000      -0.67605070       0.77220147       0.48335536
Si      -2.21277176       0.44835324       0.00000000       0.58431140       2.22615769      -1.20038634
Si      -1.31192277      -1.37569335       0.64472647       1.97705883      -1.60803988       0.17072079
Si       0.83185263      -0.31320919      -1.16624962      -2.08799692      -0.89464867       0.10074544
Si       0.05622298       1.24054930       0.52152315       0.20267740      -0.49567061       0.44556476
5
Lattice="50.0 0.0 0.0 0.0 50.0 0.0 0.0 0.0 50.0" Properties=species:S:1:pos:R:3:forces:R:3 energy=-39425.0928256539 free_energy=-39425.0928256539 pbc="T T T"
Si       3.03932612       0.00000000       0.00000000      -2.03191410       0.18755858       0.28698083
Si      -1.55803330       1.68440999       0.00000000       1.25252454      -1.25271671      -0.32005771
Si      -0.97507357      -1.57821932       0.98303652       0.74868525       1.25231887      -1.37998362