5
Lattice="50.0 0.0 0.0 0.0 50.0 0.0 0.0 0.0 50.0" Properties=species:S:1:pos:R:3:forces:R:3 energy=-39424.4405872587 free_energy=-39424.4405913046 pbc="T T T"
Si       2.70541453       0.00000000       0.00000000      -2.44844423      -0.05145914       0.70706394
Si      -1.35356007       1.66636250       0.00000000       0.35583326       0.09017187       0.24777683
Si      -1.56496445      -1.19531907       0.00616110      -2.60087088      -2.47779204       2.46924995
Si       0.53884441      -0.46370409       1.04159955       1.71696319       0.07161427      -0.20228494
Si      -0.32573441      -0.00733934      -1.04776065       2.97651866       2.36746504      -3.22180579
5
Lattice="50.0 0.0 0.0 0.0 50.0 0.0 0.0 0.0 50.0" Properties=species:S:1:pos:R:3:forces:R:3 energy=-39426.0405799907 free_energy=-39426.0405799907 pbc="T T T"
Si       2.50043318       0.00000000       0.00000000      -0.57005716       0.95827479       0.55660515
Si      -2.02992415       1.17344688       0.00000000       1.49480743      -0.61745806       0.01162276
Si      -1.66847210      -0.95821487       0.95509718       1.18623959       0.80655624      -0.76855023
Si       0.84519718      -1.06508243      -1.07008657      -1.18968809      -1.61945963      -0.85500000
Si       0.35276589       0.84985043       0.11498940      -0.92130177       0.47208667       1.05532232
5
Lattice="50.0 0.0 0.0 0.0 50.0 0.0 0.0 0.0 50.0" Properties=species:S:1:pos:R:3:forces:R:3 energy=-39424.5712075031 free_energy=-39424.5947411373 pbc="T T T"
Si       2.99418384       0.00000000       0.00000000      -1.60356534      -0.00392072       0.18418188
Si      -1.74422765       1.30962642       0.00000000      -0.18489359       1.02322570       0.07890409
Si      -1.34729279      -0.74816939       0.69051388      -1.22357261      -1.10487258       3.10126047
Si      -0.68589530      -0.51541385      -1.31105579       1.63106242      -0.00674784      -2.90864066
Si       0.78323190      -0.04604318       0.62054190       1.38096912       0.09231544      -0.45570577
5
Lattice="50.0 0.0 0.0 0.0 50.0 0.0 0.0 0.0 50.0" Properties=species:S:1:pos:R:3:forces:R:3 energy=-39424.6415959627 free_energy=-39424.6859759797 pbc="T T T"
Si       2.31996990       0.00000000       0.00000000       0.97804589       1.23218320      -0.23190023
Si      -2.00843126       0.94894344       0.00000000      -0.24293203      -0.25267195      -0.30661589
Si      -0.50875379      -0.05447754       1.61516348       0.50166718       0.51954136      -1.28944097
Si      -0.33443463       0.26206016      -1.54931754       0.12056340       1.10990551       1.14630538
Si       0.53164977      -1.15652606      -0.06584593      -1.35734444      -2.60895812       0.68165171
5
Lattice="50.0 0.0 0.0 0.0 50.0 0.0 0.0 0.0 50.0" Properties=species:S:1:pos:R:3:forces:R:3 energy=-39425.4287824096 free_energy=-39425.4287824096 pbc="T T T"
Si       2.52542560       0.00000000       0.00000000      -1.54010021      -0.23682643      -0.35717744
Si      -1.64489272       1.48234670       0.00000000       0.04504224       0.02712864      -0.04716542
Si      -1.84490353      -0.51196077       1.09141325      -1.49535996      -0.13464504       0.76723597
Si       0.85887802      -0.87274964      -1.43526381       2.04957407      -0.91628163      -2.61754954
Si       0.10549263      -0.09763629       0.34385056       0.94084386       1.26062446       2.25465643
5
Lattice="50.0 0.0 0.0 0.0 50.0 0.0 0.0 0.0 50.0" Properties=species:S:1:pos:R:3:forces:R:3 energy=-39424.1177893142 free_energy=-39424.1586384732 pbc="T T T"
Si       2.41162118       0.00000000       0.00000000      -2.05819778      -0.08951751      -0.31819403
Si      -0.40031961       2.36088267       0.00000000      -0.00764288       0.17354221      -0.15499432
Si      -2.10546767      -0.86782895       0.59530534       1.54360505       0.19181678      -1.02524824
Si       0.08279798      -1.71717632      -0.97671888      -0.32123314       1.05529758       1.17648250
Si       0.01136811       0.22412260       0.38141355       0.84346874      -1.33113906       0.32195410
5
Lattice="50.0 0.0 0.0 0.0 50.0 0.0 0.0 0.0 50.0" Properties=species:S:1:pos:R:3:forces:R:3 energy=-39426.1569093627 free_energy=-39426.1569946057 pbc="T T T"
Si       2.25212943       0.00000000       0.00000000      -0.98206640       0.10237658       0.48926899
Si      -1.19871095       1.58699473       0.00000000      -0.30805941      -0.56521992      -0.06779581
Si      -1.48485878      -0.86984362       0.13030324      -4.30055735      -1.41896491      -1.93985214
Si       0.32386950      -0.80223345      -1.21688243       0.51173853       0.25902935       0.50240271
Si       0.10757079       0.08508234       1.08657920       5.07894464       1.62277889       1.01597625
5
Lattice="50.0 0.0 0.0 0.0 50.0 0.0 0.0 0.0 50.0" Properties=species:S:1:pos:R:3:forces:R:3 energy=-39424.5789442383 free_energy=-39424.5789443806 pbc="T T T"
Si       2.57287305       0.00000000       0.00000000      -2.22754612      -0.08773582      -0.30854693
Si      -0.98918637       2.21609704       0.00000000       0.36977214      -2.09104184      -0.16897059
Si      -0.10794438      -1.65940784       0.93551935       1.59898581       0.54723775       0.27416308
Si      -1.66960910      -0.76628438      -0.27754070      -3.85095884       0.06521845      -0.25620593
Si       0.19386679       0.20959518      -0.65797865       4.10974701       1.56632145       0.45956037
5
Lattice="50.0 0.0 0.0 0.0 50.0 0.0 0.0 0.0 50.0" Properties=species:S:1:pos:R:3:forces:R:3 energy=-39424.7140705666 free_energy=-39424.7141850671 pbc="T T T"
Si       2.17020675       0.00000000       0.00000000      -0.56116540      -0.47900276       0.11830423
Si      -1.37098163       1.65257364       0.00000000       0.05807179      -0.63123497       0.17498511
Si       0.72246765      -1.80378040       0.69894408      -0.73379565       1.64176776      -0.61383182
Si      -1.87671570      -0.61193900       0.59519931       1.52131141       0.24721824      -0.48102176
Si       0.35502293       0.76314576      -1.29414339      -0.28442215      -0.77874828       0.80156425
5
Lattice="50.0 0.0 0.0 0.0 50.0 0.0 0.0 0.0 50.0" Properties=species:S:1:pos:R:3:forces:R:3 energy=-39424.8408445476 free_energy=-39424.8465445426 pbc="T T T"
Si       2.48796244       0.00000000       0.00000000      -1.15439639       0.59086475       0.18181929
Si       0.56492867       2.32353296       0.00000000       0.15628582      -2.17270332       0.01174873
Si      -1.11296964      -2.01742154       0.12693344       1.00846801      -1.25368524       0.30143041
Si      -2.13823373      -0.24980070      -0.49375399       0.50346796       1.69843104       0.14312251
Si       0.19831225      -0.05631072       0.36682055      -0.51382539       1.13709278      -0.63812094
5
Lattice="50.0 0.0 0.0 0.0 50.0 0.0 0.0 0.0 50.0" Properties=species:S:1:pos:R:3:forces:R:3 energy=-39423.2258899638 free_energy=-39423.2713554174 pbc="T T T"
Si       2.62727438       0.00000000       0.00000000      -1.22307069      -0.28936288      -0.49038218
Si      -1.47442606       2.12181148       0.00000000       0.18835559      -2.14523670       0.78493951
Si      -1.63979413       0.05838724       1.34792350       0.40783395       1.68355172      -0.77878573
Si       0.94782922      -0.62645168      -1.54132599       0.04256305       0.13699575       1.41190071
Si      -0.46088342      -1.55374704       0.19340250       0.58431810       0.61405211      -0.92767230
5
Lattice="50.0 0.0 0.0 0.0 50.0 0.0 0.0 0.0 50.0" Properties=species:S:1:pos:R:3:forces:R:3 energy=-39424.8110013276 free_energy=-39424.8658377348 pbc="T T T"
Si       2.67667639       0.00000000       0.00000000      -1.64277641       0.02485184      -0.21850484
Si      -0.73646716       2.21456793       0.00000000      -0.25812068      -1.49213101       0.00766870
Si      -0.38384225      -2.13105230       0.25365171      -0.29601086       1.22751061      -0.16146440
Si      -1.82074170      -0.19386133       0.12859127      -0.95462714       0.07943520       0.46634411
Si       0.26437472       0.11034570      -0.38224298       3.15153508       0.16033337      -0.09404358
5
Lattice="50.0 0.0 0.0 0.0 50.0 0.0 0.0 0.0 50.0" Properties=species:S:1:pos:R:3:forces:R:3 energy=-39424.678032829 free_energy=-39424.678032829 pbc="T T T"
Si       2.45294417       0.00000000       0.00000000      -1.68226138      -0.77830351      -0.08189950
Si      -0.92132513       2.09010319       0.00000000       0.38031736      -2.02422665       0.34234414
Si      -2.09677053       0.07948737       0.62968144       1.26594335       0.02368085      -0.45815206
Si       0.25971389      -1.59008053      -1.37262390       0.16512902       1.03132091       0.65995906
Si       0.30543759      -0.57951003       0.74294246      -0.12912834       1.74752840      -0.46225164
5
Lattice="50.0 0.0 0.0 0.0 50.0 0.0 0.0 0.0 50.0" Properties=species:S:1:pos:R:3:forces:R:3 energy=-39426.0834739236 free_energy=-39426.0834739236 pbc="T T T"
Si       2.69287458       0.00000000       0.00000000      -2.44211070       0.13317534      -0.29007021
Si      -1.88206156       1.44791486       0.00000000       1.64498083      -1.61475386       0.52605352
Si      -1.18956203      -0.89004929       0.89470097      -0.86653478       0.92442207      -0.15881628
Si      -0.06316082      -1.33963770      -1.04150152       0.96203257       0.26026862       0.11459998
Si       0.44190984       0.78177212       0.14680055       0.70163209       0.29688783      -0.19176701
5
Lattice="50.0 0.0 0.0 0.0 50.0 0.0 0.0 0.0 50.0" Properties=species:S:1:pos:R:3:forces:R:3 energy=-39426.8626008164 free_energy=-39426.8626008164 pbc="T T T"
Si       2.19237743       0.00000000       0.00000000      -0.91236413       0.00070031      -0.55609089
Si      -1.86014184       0.58392818       0.00000000      -0.35522620       0.69600882      -1.17454758
Si      -0.76803398      -0.75944556       1.41069624       0.99981600      -0.15561681       0.15963437
Si       0.25130338       1.25457869      -0.66386492      -0.01051709      -0.10134673       1.14776189
Si       0.18449501      -1.07906132      -0.74683132       0.27829141      -0.43974559       0.42324221
5
Lattice="50.0 0.0 0.0 0.0 50.0 0.0 0.0 0.0 50.0" Properties=species:S:1:pos:R:3:forces:R:3 energy=-39425.1112723783 free_energy=-39425.1112724607 pbc="T T T"
Si       2.42544042       0.00000000       0.00000000      -2.20121607      -0.76167506       0.32468105
Si      -1.30354911       2.00915428       0.00000000       0.14895120      -1.53629997       0.42038096
Si       0.79683531      -1.87740919       0.26695633      -0.19069525       1.34847775      -0.05001544
Si      -1.34813257      -0.12228430      -1.30476926       0.99770370       0.21154941       0.84443389
Si      -0.57059404      -0.00946079       1.03781293       1.24525642       0.73794787      -1.53948045
5
Lattice="50.0 0.0 0.0 0.0 50.0 0.0 0.0 0.0 50.0" Properties=species:S:1:pos:R:3:forces:R:3 energy=-39425.2887944857 free_energy=-39425.2887958755 pbc="T T T"
Si       2.76713470       0.00000000       0.00000000      -2.39941563       0.04887605       0.65630955
Si      -1.45287823       1.33412709       0.00000000       1.24243006       0.39447615       0.11716829
Si      -1.25552075      -1.26368883       0.42654540       0.96325902      -0.66253792       0.16214833
Si      -0.65310797      -0.15750528      -1.54337270       0.00431416       0.05460352       0.21677182
Si       0.59437226       0.08706702       1.11682730       0.18941239       0.16458219      -1.15239800
5
Lattice="50.0 0.0 0.0 0.0 50.0 0.0 0.0 0.0 50.0" Properties=species:S:1:pos:R:3:forces:R:3 energy=-39425.0925332721 free_energy=-39425.0925332768 pbc="T T T"
Si       2.32810165       0.00000000       0.00000000      -1.20772130       0.53122323      -0.10427782
Si       0.26763751       2.29760947       0.00000000       0.75905427       0.20147752       0.04027933
Si      -2.24546254      -0.42363413       0.13477148       1.24212915      -0.67447998      -0.27878516
Si      -0.37769638      -2.00276194      -0.21410799      -0.85814609      -0.34855926       0.11636232
Si       0.02741976       0.12878661       0.07933650       0.06468398       0.29033848       0.22642133
5
Lattice="50.0 0.0 0.0 0.0 50.0 0.0 0.0 0.0 50.0" Properties=species:S:1:pos:R:3:forces:R:3 energy=-39423.8804660211 free_energy=-39423.8834045949 pbc="T T T"
Si       2.66149567       0.00000000       0.00000000      -1.29944528       0.43738565      -0.11910718
Si      -0.69419007       2.47619965       0.00000000      -0.12588275      -1.56464837      -0.06927378
Si      -0.58725832      -2.44594118       0.31991770      -0.35340277       2.23600909      -0.43802913
Si      -1.69787790      -0.42713148      -0.14571341      -1.18550481      -0.81893202       0.31954665
Si       0.31783062       0.39687302      -0.17420429       2.96423561      -0.28981435       0.30686345
5
Lattice="50.0 0.0 0.0 0.0 50.0 0.0 0.0 0.0 50.0" Properties=species:S:1:pos:R:3:forces:R:3 energy=-39425.7952455331 free_energy=-39425.7952455362 pbc="T T T"
Si       2.31498377       0.00000000       0.00000000      -0.97456530      -0.19240075      -0.98925364
Si      -1.13384562       1.91641947       0.00000000       0.73647760      -1.73658009      -0.31646716
Si      -1.95591697      -0.35327422       0.00814313       0.86725303      -0.10269718       0.00438212
Si       0.62009026      -1.21314035       1.08890113      -1.11177629       0.52877486       0.01192994
Si       0.15468856      -0.35000490      -1.09704425       0.48261096       1.50290316       1.28940874
5
Lattice="50.0 0.0 0.0 0.0 50.0 0.0 0.0 0.0 50.0" Properties=species:S:1:pos:R:3:forces:R:3 energy=-39424.5175318977 free_energy=-39424.5534512899 pbc="T T T"
Si       2.60693065       0.00000000       0.00000000      -1.63432350       0.10608088      -0.25585486
Si      -0.70801097       2.37777727       0.00000000       0.46258384      -2.03956262      -0.23096613
Si      -0.26940499      -2.07755748       0.22328862       0.07055052       0.71995510      -0.14227995
Si      -1.90035307      -0.47640082       0.37289235       1.14745065       0.67093877      -0.35278448
Si       0.27083837       0.17618103      -0.59618097      -0.04626151       0.54258787       0.98188542
5
Lattice="50.0 0.0 0.0 0.0 50.0 0.0 0.0 0.0 50.0" Properties=species:S:1:pos:R:3:forces:R:3 energy=-39423.9776460419 free_energy=-39423.9776460419 pbc="T T T"
Si       2.89630554       0.00000000       0.00000000      -1.97881365      -0.78607387      -0.09143079
Si      -0.34114416       2.24438570       0.00000000      -0.18418886      -1.57956650       0.11737120
Si      -1.53377071      -1.47369778       0.55441773       0.38311127      -0.03081243       0.35692417
Si      -1.81891305       0.50511150      -0.60211216       1.53007209       0.28453862      -0.17607106
Si       0.79752238      -1.27579942       0.04769443       0.24981915       2.11191418      -0.20679352
5
Lattice="50.0 0.0 0.0 0.0 50.0 0.0 0.0 0.0 50.0" Properties=species:S:1:pos:R:3:forces:R:3 energy=-39425.63697905 free_energy=-39425.636979051 pbc="T T T"
Si       2.52199155       0.00000000       0.00000000      -1.46550659      -0.11230216      -0.04504013
Si      -0.85230030       1.64882724       0.00000000       0.67282027       0.10760970       0.48503290
Si      -1.64301212      -0.40090094       0.57772517      -5.06410112      -0.39131502      -0.33888335
Si      -0.44910708      -0.92704837      -1.35034552       0.79680682      -0.39238088       0.09095754
Si       0.42242796      -0.32087792       0.77262035       5.05998063       0.78838837      -0.19206696
5
Lattice="50.0 0.0 0.0 0.0 50.0 0.0 0.0 0.0 50.0" Properties=species:S:1:pos:R:3:forces:R:3 energy=-39426.3988593373 free_energy=-39426.3988593978 pbc="T T T"
Si       2.35862468       0.00000000       0.00000000      -0.35212989      -0.27348375       0.14194525
Si      -1.93594034       1.32573582       0.00000000       1.38761093      -0.82081274      -0.58804944
Si      -1.31930182      -0.85642948       1.02652615       0.95500912       1.29923575      -0.33564220
Si       0.48438021      -1.40633989      -0.41386647       0.04178461      -1.20312223      -0.41807536
Si       0.41223728       0.93703355      -0.61265968      -2.03227478       0.99818298       1.19982175
5
Lattice="50.0 0.0 0.0 0.0 50.0 0.0 0.0 0.0 50.0" Properties=species:S:1:pos:R:3:forces:R:3 energy=-39426.0707683997 free_energy=-39426.1197398363 pbc="T T T"
Si       2.36552143       0.00000000       0.00000000      -0.88258311      -0.24719291      -0.17129929
Si      -1.82433426       1.47522303       0.00000000      -2.27437284       0.42424990       0.46063760
Si       0.58334200      -1.64058834       0.58287173       0.98303167       1.05758341       0.17126566
Si      -1.33424566      -0.76438831      -0.24409942      -1.27597050      -0.13966469      -0.62046540
Si       0.20971649       0.92975362      -0.33877231       3.44989479      -1.09497571       0.15986143
5
Lattice="50.0 0.0 0.0 0.0 50.0 0.0 0.0 0.0 50.0" Properties=species:S:1:pos:R:3:forces:R:3 energy=-39425.2611581383 free_energy=-39425.2611621069 pbc="T T T"
Si       2.67668245       0.00000000       0.00000000      -2.45341423      -0.88097576      -0.05711814
Si      -1.51612944       1.71946536       0.00000000       0.90164730       0.01449797      -0.40123205
Si      -1.80591534      -0.43008284       0.36565585       0.68760793      -1.36102311       0.46594282
Si       0.57079889      -0.88604036       0.94213240       0.14920024       1.18923994      -0.31524071
Si       0.07456343      -0.40334216      -1.30778825       0.71495876       1.03826096       0.30764808
5
Lattice="50.0 0.0 0.0 0.0 50.0 0.0 0.0 0.0 50.0" Properties=species:S:1:pos:R:3:forces:R:3 energy=-39423.879087673 free_energy=-39423.8952457279 pbc="T T T"
Si       2.43066758       0.00000000       0.00000000      -1.69620763      -0.96599730      -0.18346768
Si       0.08654759       2.37810053       0.00000000      -0.81302755      -1.77580071      -0.11552275
Si      -1.60142880      -1.40284319       0.67407430       0.57798451       0.05902755       0.03836898
Si       0.63017654      -1.64101653      -0.25228340       0.11506257       2.30671942       0.23657857
Si      -1.54596292       0.66575920      -0.42179089       1.81618810       0.37605104       0.02404287
5
Lattice="50.0 0.0 0.0 0.0 50.0 0.0 0.0 0.0 50.0" Properties=species:S:1:pos:R:3:forces:R:3 energy=-39424.0713446656 free_energy=-39424.071741521 pbc="T T T"
Si       2.67762707       0.00000000       0.00000000      -2.26949539       0.13535497       0.11873071
Si      -0.37989389       2.27831418       0.00000000       0.14974579      -1.81044816       0.00370892
Si      -2.19660713      -0.45055604       0.25550559       1.87611540       0.14668563      -0.41017732
Si      -0.32196567      -1.79757334      -0.59457098      -1.66200023      -2.50621793      -1.53392002
Si       0.22083962      -0.03018480       0.33906539       1.90563443       4.03462549       1.82165772
5
Lattice="50.0 0.0 0.0 0.0 50.0 0.0 0.0 0.0 50.0" Properties=species:S:1:pos:R:3:forces:R:3 energy=-39424.025985562 free_energy=-39424.0259876494 pbc="T T T"
Si       2.87106818       0.00000000       0.00000000      -2.46059896      -0.41955477       0.02665674
Si      -1.46206963       2.31222354       0.00000000       0.38793039      -2.36701588      -0.27474901
Si       0.11961122      -2.33378202       0.48568403      -0.06209202       2.20886509      -0.63664803
Si      -1.93643771      -0.03611287      -0.33930687       0.93347947       0.71601157       0.54841920
Si       0.40782795       0.05767135      -0.14637716       1.20128113      -0.13830601       0.33632110
5
Lattice="50.0 0.0 0.0 0.0 50.0 0.0 0.0 0.0 50.0" Properties=species:S:1:pos:R:3:forces:R:3 energy=-39424.864093769 free_energy=-39424.864093769 pbc="T T T"
Si       2.93698058       0.00000000       0.00000000      -2.29162339      -0.14278257      -0.13514126
Si      -0.99539171       1.84271459       0.00000000       0.95868534      -0.64176992       0.01278805
Si      -0.80526635      -1.34597004       0.99006122      -2.97815031      -2.29048684       2.63885629
Si      -1.65131261      -0.14424720      -0.80834078      -1.64329501      -0.12264739      -0.52086480
Si       0.51499009      -0.35249734      -0.18172043       5.95438338       3.19768672      -1.99563829
5
Lattice="50.0 0.0 0.0 0.0 50.0 0.0 0.0 0.0 50.0" Properties=species:S:1:pos:R:3:forces:R:3 energy=-39424.6006876098 free_energy=-39424.6069470694 pbc="T T T"
Si       2.34068320       0.00000000       0.00000000      -1.20638013      -0.36773965      -0.19515467
Si      -1.92371478       1.04674487       0.00000000       0.90285503      -0.66165960      -0.05130996
Si       0.84931469       0.06712224       1.72869286      -0.91084164      -0.25455466      -0.29503653
Si      -0.65860449      -0.11522853      -1.79656671      -0.36531423       1.31894816      -2.48777390
Si      -0.60767862      -0.99863858       0.06787385       1.57968097      -0.03499425       3.02927506
5
Lattice="50.0 0.0 0.0 0.0 50.0 0.0 0.0 0.0 50.0" Properties=species:S:1:pos:R:3:forces:R:3 energy=-39426.4912793658 free_energy=-39426.4912793658 pbc="T T T"
Si       2.47593638       0.00000000       0.00000000      -1.33422015      -0.41392112      -0.22807817
Si      -1.34402177       1.58384878       0.00000000       1.05211573      -0.24968450       0.20710027
Si      -1.85944950      -0.59162370       0.26581617       0.67526942      -0.76843292      -0.16763401
Si       0.25596319      -0.72019647      -1.29534889       0.16227255       0.52779220       0.74273440
Si       0.47157171      -0.27202861       1.02953272      -0.55543755       0.90424633      -0.55412249
5
Lattice="50.0 0.0 0.0 0.0 50.0 0.0 0.0 0.0 50.0" Properties=species:S:1:pos:R:3:forces:R:3 energy=-39425.4039924451 free_energy=-39425.4039924451 pbc="T T T"
Si       2.54401361       0.00000000       0.00000000      -2.07677156      -0.38580108       0.73625858
Si      -1.83737816       1.46303761       0.00000000       0.49702083      -0.66802073       0.01192702
Si       0.49782316      -1.24154209       1.47164275       0.58273981       1.17909041      -1.46214632
Si      -1.48063386      -0.57631840      -1.06069414      -2.83224115      -1.25018543      -0.55081410
Si       0.27617524       0.35482287      -0.41094861       3.82925208       1.12491683       1.26477483
5
Lattice="50.0 0.0 0.0 0.0 50.0 0.0 0.0 0.0 50.0" Properties=species:S:1:pos:R:3:forces:R:3 energy=-39424.6512726714 free_energy=-39424.7004268498 pbc="T T T"
Si       2.55785235       0.00000000       0.00000000      -1.70186389      -0.05385953      -0.24748395
Si      -2.28941343       0.81144954       0.00000000       1.37419393      -0.37667123      -0.80978861
Si       0.73556466      -0.37299382       1.51677083       0.11100486       0.47316916      -1.16157889
Si      -0.09696951       0.63807111      -1.53540323       0.15973023       0.00370314       1.93843339
Si      -0.90703406      -1.07652682       0.01863240       0.05693488      -0.04634153       0.28041807
5
Lattice="50.0 0.0 0.0 0.0 50.0 0.0 0.0 0.0 50.0" Properties=species:S:1:pos:R:3:forces:R:3 energy=-39424.7240164506 free_energy=-39424.7277056302 pbc="T T T"
Si       2.85632471       0.00000000       0.00000000       0.76356135       0.39019292      -0.13093193
Si      -1.28627072       1.86503223       0.00000000       0.78287325      -1.87159328      -0.78217888
Si      -1.45308462      -1.01037548       1.00304230       0.64242632       0.20842977      -0.63156369
Si      -0.94354217      -0.26404343      -1.20005103      -1.15237088       1.43708023       0.56692591
Si       0.82657280      -0.59061333       0.19700873      -1.03649005      -0.16410965       0.97774859
5
Lattice="50.0 0.0 0.0 0.0 50.0 0.0 0.0 0.0 50.0" Properties=species:S:1:pos:R:3:forces:R:3 energy=-39425.3140138612 free_energy=-39425.3684878865 pbc="T T T"
Si       3.01359395       0.00000000       0.00000000      -0.94626257      -0.14742179       0.12892850
Si      -1.75470921       1.36124933       0.00000000      -0.46702088       0.34363546       0.40112880
Si      -1.48678573      -0.77208162       0.87712790       0.44876666      -0.01473502       0.73051669
Si      -0.60357816      -0.03165641      -1.31367472       0.93889373      -0.10453528      -1.12957126
Si       0.83147915      -0.55751130       0.43654682       0.02562306      -0.07694337      -0.13100273
5
Lattice="50.0 0.0 0.0 0.0 50.0 0.0 0.0 0.0 50.0" Properties=species:S:1:pos:R:3:forces:R:3 energy=-39424.8430897139 free_energy=-39424.8438786889 pbc="T T T"
Si       2.61333763       0.00000000       0.00000000      -1.66292605      -0.29487833       0.33731142
Si      -1.77186275       1.56764297       0.00000000       0.68087198      -0.85032777      -0.26733653
Si      -2.22131175      -0.76629696       0.17943252       1.33554629       0.66412628       0.39324065
Si       0.92554315      -1.73789764      -0.57891717      -0.25346393       1.93397441       0.15951008
Si       0.45429372       0.93655163       0.39948466      -0.10002829      -1.45289459      -0.62272563
5
Lattice="50.0 0.0 0.0 0.0 50.0 0.0 0.0 0.0 50.0" Properties=species:S:1:pos:R:3:forces:R:3 energy=-39424.6657347524 free_energy=-39424.6782013175 pbc="T T T"
Si       2.49374486       0.00000000       0.00000000      -1.36627239      -0.84112013      -0.48508800
Si      -1.60787398       1.71225869       0.00000000       0.69015904      -1.80056806      -0.03156018
Si      -1.74287428      -0.97204440       1.03352686       1.03092131       1.42527259      -1.26971557
Si       0.42915369      -1.36556951      -0.13211200       0.56548368      -1.53878519       1.55933673
Si       0.42784970       0.62535521      -0.90141486      -0.92029165       2.75520079       0.22702703
5
Lattice="50.0 0.0 0.0 0.0 50.0 0.0 0.0 0.0 50.0" Properties=species:S:1:pos:R:3:forces:R:3 energy=-39423.0951694634 free_energy=-39423.1159632571 pbc="T T T"
Si       2.89128392       0.00000000       0.00000000      -1.30030925      -0.18783406      -0.71357446
Si      -1.51489190       2.16333083       0.00000000      -0.08817121      -1.94048581       0.54500067
Si      -2.00127412      -0.16751780       0.60886785       0.00459571       2.64685131      -1.25600083
Si      -0.29801479      -1.56466530       0.61945550       1.52320291      -0.70793985      -0.14571763
Si       0.92289689      -0.43114773      -1.22832335      -0.13931816       0.18940843       1.57029225
5
Lattice="50.0 0.0 0.0 0.0 50.0 0.0 0.0 0.0 50.0" Properties=species:S:1:pos:R:3:forces:R:3 energy=-39425.8689321279 free_energy=-39425.8690382069 pbc="T T T"
Si       2.57496574       0.00000000       0.00000000      -1.18887822      -0.30798042      -0.25964030
Si      -1.70442225       1.66717798       0.00000000       0.28452980      -0.64980362      -0.42021921
Si      -1.86530926      -0.64254197       0.52579139       2.16289413       0.43677749      -0.60252594
Si       0.82745258      -1.48446243       0.38405493      -0.97175508       1.22447576      -0.54710286
Si       0.16731320       0.45982641      -0.90984632      -0.28679064      -0.70346920       1.82948830
5
Lattice="50.0 0.0 0.0 0.0 50.0 0.0 0.0 0.0 50.0" Properties=species:S:1:pos:R:3:forces:R:3 energy=-39425.0871695711 free_energy=-39425.087169577 pbc="T T T"
Si       2.60156466       0.00000000       0.00000000      -0.01333620       0.19105440      -0.07931329
Si      -0.79399146       1.81759406       0.00000000      -0.34834947       0.03663539       0.60788330
Si      -0.87488296      -1.67852262       0.25043312      -0.85133583      -2.81935156       1.94318999
Si      -1.44638387      -0.10486217      -1.01683931       0.07604935       1.79427401      -2.16299295
Si       0.51369363      -0.03420926       0.76640619       1.13697215       0.79738775      -0.30876705
5
Lattice="50.0 0.0 0.0 0.0 50.0 0.0 0.0 0.0 50.0" Properties=species:S:1:pos:R:3:forces:R:3 energy=-39426.1380797368 free_energy=-39426.1380797368 pbc="T T T"
Si       2.47396492       0.00000000       0.00000000      -2.22945811       0.28564231       0.11361997
Si      -1.82466927       1.02280507       0.00000000       0.48708593       0.75656432      -0.96125383
Si      -1.24704705      -1.11139902       0.10059374      -4.01578536      -3.42433393      -1.35777525
Si       0.35805052       0.25823784      -1.17663946       0.71267448       1.03038004      -0.59369473
Si       0.23970087      -0.16964389       1.07604572       5.04548307       1.35174726       2.79910384
5
Lattice="50.0 0.0 0.0 0.0 50.0 0.0 0.0 0.0 50.0" Properties=species:S:1:pos:R:3:forces:R:3 energy=-39424.1686744525 free_energy=-39424.2123991751 pbc="T T T"
Si       2.54590088       0.00000000       0.00000000      -1.02174383      -0.38180137      -0.07514463
Si      -1.10405042       1.99259687       0.00000000      -0.15072644      -1.39542650      -0.35002457
Si      -1.45433597      -0.08374227       1.32655887       0.35347614       0.20402034       0.87413069
Si       0.97799700      -1.62142425      -0.48271683      -0.55540715       0.73199543       0.11314689
Si      -0.96551149      -0.28743035      -0.84384204       1.37440129       0.84121210      -0.56210837
5
Lattice="50.0 0.0 0.0 0.0 50.0 0.0 0.0 0.0 50.0" Properties=species:S:1:pos:R:3:forces:R:3 energy=-39423.4254024214 free_energy=-39423.4503396752 pbc="T T T"
Si       2.81221011       0.00000000       0.00000000      -0.49391699      -0.01133736       0.03491664
Si      -0.90465880       2.13299157       0.00000000      -0.05302513      -1.60479862       0.16678819
Si      -1.83443811       0.32224239       1.24961405       1.20808002       0.30988285      -0.82738012