16
Lattice="8.614119421941 0.0 0.0 0.52794215113192 6.859922914618092 0.0 0.08893216891211889 -0.01772785777035458 2.488532959804535" Properties=species:S:1:pos:R:3:force:R:3:tags:I:1 config_type=shaiducarbon energy=-4068.315097788397 unit_cell=conventional pbc="T T T"
C		0.69096867		2.14711923		0.61934313		-1.01039264		-0.16658319		2.23824602		0
C		1.42835969		2.11310896		1.88328942		0.67005263		-0.05135063		-1.30611447		0
C		1.14780988		5.46882791		1.80446937		0.48753630		-0.18225844		-1.04200824		0
C		3.55264891		2.02522944		0.64815736		0.00564589		0.62499787		-0.58909007		0
C		2.85601905		2.05789935		1.87830960		1.32957581		-0.28024223		0.79741566		0
C		3.23748843		5.44743819		0.51683855		0.44811663		0.49572193		0.29465816		0
C		2.57543909		5.47431769		1.77249893		-0.02289363		-0.24773189		0.19172782		0
C		5.02317816		2.07935884		0.65296576		-2.46897750		-0.62213263		2.09170048		0
C		4.67017844		5.45724795		0.54273518		1.24891484		0.13358614		-0.93319855		0
C		5.46662786		5.45982788		1.76045897		-1.37314035		-0.44360151		0.67539744		0
C		5.74483808		2.05671921		1.93517916		2.03226784		0.13773693		-1.93136019		0
C		6.89415715		5.39190813		1.75599944		0.02601830		0.24724647		1.36701830		0
C		7.86364700		2.14099890		0.71995173		0.48376397		-0.51775013		-1.44062929		0
C		7.20676699		2.07524905		1.96106889		-0.88395572		0.40142819		0.20931418		0
C		9.02481652		5.43806775		0.55148712		-1.54574301		0.11667958		0.64490927		0
C		7.56991673		5.38823765		0.53888984		0.57321041		0.35425355		-1.26798601		0
16
Lattice="5.289662817186 0.0 0.0 -0.8238914320908054 5.4855231623179455 0.0 0.10933204076841743 -0.04082032796022436 4.8372644047461675" Properties=species:S:1:pos:R:3:force:R:3:tags:I:1 config_type=shaiducarbon energy=-4052.5951184615756 unit_cell=conventional pbc="T T T"
C		2.32866932		5.08013769		2.04915719		-1.52034975		1.05060781		3.03805023		0
C		0.44533142		2.41468929		0.35238993		-4.24505374		0.73370599		0.03435999		0
C		3.19713039		0.99003181		1.55697046		1.74584596		-0.87601409		-2.89445324		0
C		1.72179794		5.16132555		3.31842659		1.51708985		-1.05080656		-3.03765711		0
C		2.78517939		3.73278916		1.55697046		1.74682555		-0.87606088		-2.89529759		0
C		0.74596042		3.85787540		0.13146716		2.50470327		-0.74176075		-1.48080153		0
C		2.13373784		2.41856820		3.31842659		1.51816251		-1.05248395		-3.03768925		0
C		0.03338571		5.15744664		0.35238993		-4.24612898		0.73809024		0.03538483		0
C		2.74062033		2.33738034		2.04915719		-1.52089277		1.05184323		3.03825824		0
C		4.01896732		0.93886120		0.39879403		-2.50974546		0.73990287		1.48116148		0
C		3.90763790		5.12481629		0.17784217		4.25420816		-0.73301565		-0.03511821		0
C		1.15790031		1.11511805		0.13146716		2.50572065		-0.74240044		-1.48056421		0
C		1.67719709		3.76591091		3.81060856		-1.74721173		0.87521833		2.89410306		0
C		2.08913805		1.02314827		3.81060856		-1.74674764		0.87656662		2.89472115		0
C		3.60702002		3.68162965		0.39879403		-2.50939425		0.74299565		1.48107869		0
C		4.31958891		2.38205894		0.17784217		4.25296812		-0.73638842		-0.03553627		0
16
Lattice="5.943158311442 0.0 0.0 -0.34803729387635496 3.7169106395589413 0.0 -1.4665456312480507 -1.5760602094529925 5.243060205512443" Properties=species:S:1:pos:R:3:force:R:3:tags:I:1 config_type=shaiducarbon energy=-4057.7176728992044 unit_cell=conventional pbc="T T T"
C		-0.53494368		-0.40597358		4.40538809		0.93024667		0.92428813		0.07809886		0
C		-0.00382739		2.19934894		1.86943946		-1.46797402		1.75765247		-1.69389086		0
C		0.26557597		-1.18316931		5.25472781		-0.29017210		-0.52096658		-0.67888103		0
C		0.52592078		0.48436384		3.60510854		0.71621939		-2.09738082		1.10178875		0
C		0.85738379		1.37531934		2.60346884		-2.04292121		0.98004383		-0.48303172		0
C		0.99118449		3.15491846		1.01792930		0.48136102		-0.68534016		-0.39835186		0
C		1.70929928		-0.93501986		4.93116801		-1.00260476		-0.83165790		1.59916981		0
C		1.81696910		0.01716206		4.02013830		-1.21019168		1.69182395		-1.61821270		0
C		2.20586918		1.71799947		2.31134894		1.12216578		-1.09321385		0.94658655		0
C		2.23498887		2.68336866		1.38941948		2.26019734		0.71554165		-0.88438252		0
C		4.43263806		0.22153182		0.15468496		-0.64396465		0.66732597		-1.20457099		0
C		3.20633866		0.33914871		3.69741827		-0.14187641		-1.08723912		1.80550768		0
C		3.67783853		2.94184851		1.04704958		0.80902883		-0.41360931		2.13827399		0
C		3.50811857		1.27558958		2.72711863		-1.38086601		1.68590475		-1.20894495		0
C		3.99308802		-0.46166989		4.55098833		0.25255374		-0.80022742		0.09015272		0
C		4.46713810		2.14362886		1.91918905		1.60879808		-0.89294559		0.41068777		0
16
Lattice="8.468244373413 0.0 0.0 -0.022220673235835712 8.41251485719157 0.0 0.1440279003030083 0.15629838640008376 2.5368404351877056" Properties=species:S:1:pos:R:3:force:R:3:tags:I:1 config_type=shaiducarbon energy=-4059.377413774628 unit_cell=conventional pbc="T T T"
C		3.05843856		0.71652780		1.85436938		0.46187204		0.18586905		1.30791502		0
C		2.37574902		1.90302960		1.81202900		0.03268852		0.12954205		1.73521855		0
C		2.05289890		2.46532865		0.56659245		-1.25932936		3.30628412		-1.76060796		0
C		1.67256972		3.90898818		0.50875688		-0.44975108		-3.74880628		0.70160754		0
C		1.54846929		4.64245839		1.76982920		-0.14329437		-0.09217669		0.36971412		0
C		1.61970925		6.05203747		1.77902910		0.19559065		0.25743962		0.86785057		0
C		1.92903897		6.57170737		0.51577451		1.16193512		-0.65175870		-1.24216054		0
C		3.58061845		0.11971896		0.63215444		-0.37882020		-2.26259335		-1.70747941		0
C		4.78426761		5.32150743		1.93147952		2.29099995		-1.91732144		-0.74279459		0
C		3.45580839		6.97170744		0.56911175		1.51263386		1.16865753		-1.03080336		0
C		4.27368836		6.53224705		1.79367916		-4.18828194		2.98362868		1.44088203		0
C		5.12533801		0.40895100		0.62883066		0.20241565		0.95094406		5.10862985		0
C		5.61306739		1.16979989		2.03206956		-0.95006526		1.14528465		-4.62370400		0
C		5.34732795		3.24561894		0.70495255		-0.08794491		-0.78002548		-0.19112002		0
C		5.47840791		2.59540851		1.99343912		2.13295412		0.14030881		-0.09792800		0
C		5.02948764		4.60345789		0.67870269		-0.53360279		-0.81527687		-0.13521982		0
24
Lattice="10.38743758734 0.0 0.0 0.06110929532632122 5.167303539885395 0.0 -0.12137720820806788 -0.6427019258414878 4.671500756404068" Properties=species:S:1:pos:R:3:force:R:3:tags:I:1 config_type=shaiducarbon energy=-6089.108734728711 unit_cell=conventional pbc="T T T"
C		-0.24768741		-0.37072765		4.05252789		-0.35027708		0.28852299		-0.59577494		0
C		-0.23512900		-0.15611072		2.50969945		0.08200566		-0.10942084		-0.60724078		0
C		-0.15896623		1.47294904		0.10293847		-0.29092080		0.19979724		1.42256419		0
C		-0.24209689		1.26104947		1.71266928		0.35287287		0.10356926		-0.62582345		0
C		-0.26120978		2.46648875		2.43608887		0.49408079		-0.57435815		1.24391095		0
C		-0.27949790		2.23906930		4.04583838		0.18762228		0.04141742		-0.44018914		0
C		-0.15418905		3.84207841		1.68618963		-0.45226716		0.41523631		0.80397404		0
C		3.40643862		1.61428882		2.74527926		-0.53219562		-0.35206143		-0.76563860		0
C		3.42068811		1.85390935		1.18640949		0.20069044		-0.82369596		-0.74948615		0
C		3.34021871		0.19970160		3.51877876		0.43918847		0.33395159		-0.14953830		0
C		3.44305850		0.67805765		0.36289760		-0.26367017		-0.26341049		1.28130716		0
C		3.45971891		4.18405778		2.74150862		-0.75957619		0.39183385		-0.41969692		0
C		3.47519827		4.42800779		1.17535934		-0.00247829		-0.87767425		-0.36502905		0
C		3.35387819		2.77820848		3.51546828		0.60648385		0.47065982		0.31317012		0
C		3.46103811		3.21975871		0.38825437		-0.14580557		1.13845373		0.81022568		0
C		6.56705750		0.42764042		4.06460848		0.47410433		-0.04681648		0.32722532		0
C		6.72715700		0.88743723		0.81106567		-0.36192213		-1.67962766		2.30318159		0
C		6.57619740		-0.54914435		3.15174904		0.59882222		0.85038583		0.41437293		0
C		6.66337709		-0.31102585		1.72063956		0.16363850		-0.11167929		-0.61993305		0
C		6.74571727		3.10978899		3.22049830		-0.76738207		0.12415532		-0.21743785		0
C		6.76803676		3.33792828		1.76947922		0.16424348		-0.37745803		0.19338696		0
C		6.75777708		2.37448929		0.86343290		0.23944265		-0.30684469		-1.16700586		0
C		6.66217734		1.91073902		4.09362787		-0.13077052		1.54929628		-1.19917475		0
C		10.26029535		4.05325813		0.18689078		0.05407034		-0.38423264		-1.19134985		0
16
Lattice="4.007119276897 0.0 0.0 1.407440539220918 5.567102832750833 0.0 0.3034791784357943 -2.3822524457116505 6.085792366190934" Properties=species:S:1:pos:R:3:force:R:3:tags:I:1 config_type=shaiducarbon energy=-4063.53727514043 unit_cell=conventional pbc="T T T"
C		4.41478756		-1.48571921		5.69795611		0.03449729		-0.06066857		0.10592336		0
C		0.63313486		1.98526914		0.38484093		-0.03410237		0.06028779		-0.10138305		0
C		2.52540959		3.08714961		1.13439142		-0.01641085		-0.01428943		0.01031193		0
C		4.41792594		4.17105894		1.90938673		-0.01840834		0.05374484		-0.07921446		0
C		3.92996620		2.97946909		4.94908723		0.01598842		0.01188493		-0.01114548		0
C		2.25942983		-0.30069183		2.66392729		0.02707142		0.03132943		-0.01961188		0
C		3.05134039		-1.49128951		5.71077890		-0.02994180		0.05752205		-0.09808560		0
C		2.56621929		2.98942799		4.93911872		-0.01071020		-0.00871168		0.00136783		0
C		0.89577148		-0.29403921		2.65957595		-0.02016286		-0.03262090		0.00471849		0
C		1.99660007		1.99114679		0.37215840		0.02574782		-0.06272134		0.09876540		0
C		3.88910841		3.07699797		1.14431145		0.01587889		0.01193996		0.00079164		0
C		4.68108949		1.88551151		4.19233755		-0.02922112		0.05101921		-0.08533755		0
C		4.15214774		0.79290312		3.42493133		0.01737193		0.03155157		-0.00727828		0
C		1.77430714		4.18070568		1.89164040		0.02902701		-0.04797425		0.08677300		0
C		2.03743823		1.89492864		4.17473708		0.02164639		-0.04944235		0.07955025		0
C		2.78848819		0.79930770		3.42082924		-0.02827187		-0.03285127		0.01385440		0
24
Lattice="7.010125725471 0.0 0.0 0.1913554019281819 4.502582723092847 0.0 1.212856902392365 -0.5301617883659208 5.996657829088207" Properties=species:S:1:pos:R:3:force:R:3:tags:I:1 config_type=shaiducarbon energy=-6096.406583819669 unit_cell=conventional pbc="T T T"
C		1.92378950		3.10102866		2.18904916		1.41490204		3.41973902		-0.05283570		0
C		1.81432919		0.80578872		2.20009922		0.63364064		0.76363623		0.23537028		0
C		1.14066943		4.23774859		2.15631888		-0.35629912		-1.05566749		0.36766135		0
C		1.18349920		2.01649912		2.25086935		-0.98102162		-3.92101145		-0.49029381		0
C		1.42277932		-0.07354814		5.22147813		-0.59323675		0.56261977		1.08341331		0
C		1.47334967		1.40266938		5.26225813		1.55014860		-0.07777285		-0.43569819		0
C		3.23176891		0.45955089		2.21226880		-0.37683634		-1.40041927		-0.08080264		0
C		3.35119902		3.49021892		2.17613931		0.89156670		0.18623954		0.60011831		0
C		2.68991913		2.16529885		5.22248758		-1.22886227		0.63884687		0.61601417		0
C		2.74898926		3.68581825		5.31002793		1.29212560		-1.58115433		-1.44204443		0
C		4.44154836		1.22908955		2.25062890		0.57846626		0.74021089		0.05332523		0
C		4.50204855		2.68293915		2.24621883		0.15843124		0.08450554		-0.34998603		0
C		3.82481853		1.40508927		5.21821772		0.17021847		-0.69650878		-0.31994524		0
C		3.76844871		-0.08994061		5.22650789		-0.34487390		0.37794089		0.37048571		0
C		5.10187767		3.63056865		5.22746758		0.19583954		1.00534685		-0.77839591		0
C		5.00236823		2.15987932		5.15999792		1.17207659		0.55988386		1.02448821		0
C		5.86963786		0.85425042		2.28827889		-1.25922908		2.26583886		-0.65098068		0
C		5.96410771		3.06728892		2.20740938		-1.37032397		-2.27702239		0.04906080		0
C		6.12120743		-0.07208793		5.21109823		-1.27348200		-0.34161631		1.00600479		0
C		6.17204767		1.42529946		5.27712801		-0.50736672		-1.02547320		-0.98763322		0
C		6.68066734		4.20222828		2.19407892		2.21857423		-0.53807549		0.20671994		0
C		6.76244747		1.93469936		2.19967931		-1.59639867		1.75772600		0.82938967		0
C		7.35723701		2.17577899		5.25741764		-0.38220301		0.62862287		0.59468351		0
C		7.44106690		3.65816821		5.32081792		-0.00585646		-0.07643587		-1.44811918		0
16
Lattice="4.86586718332 0.0 0.0 -0.00271028802110924 4.938135042726668 0.0 0.04514064985965964 -0.13391839661933305 4.900731121688488" Properties=species:S:1:pos:R:3:force:R:3:tags:I:1 config_type=shaiducarbon energy=-4056.1777514201394 unit_cell=conventional pbc="T T T"
C		1.08966960		0.55385198		0.92458337		-0.50497893		0.39962404		-0.50662033		0
C		1.94210919		1.05958978		3.33768856		-0.11805718		0.87213198		-0.02940856		0
C		1.08285933		2.23968908		0.95390752		0.01341783		0.24946353		-0.90394966		0
C		0.71144087		1.85169943		3.36904858		-0.09435133		-0.14754235		-0.41774365		0
C		2.28187907		3.02705889		0.88951361		-0.42076341		0.74367417		0.02898535		0
C		0.72207182		3.59763827		3.33894833		0.01210271		-0.83019262		0.06562463		0
C		2.29715887		4.72953775		0.84772749		0.80680765		0.18765288		0.44411213		0
C		1.93039899		4.34455812		3.35874852		-0.05993555		0.24660909		-0.38590566		0
C		3.55517822		0.58358875		0.83494777		-2.76843618		-0.10009209		0.38127124		0
C		4.37735796		1.08897962		3.31626852		-0.74482782		0.34560513		0.07051693		0
C		3.48675829		2.30027886		0.89763669		2.42455961		-0.93776329		-0.49494134		0
C		3.12013855		1.86952943		3.27780871		1.07061435		-0.53067816		0.63322437		0
C		4.74823776		3.04334884		0.89019678		-1.67518144		-0.01543409		-0.02973766		0
C		3.16829847		3.58132837		3.30184853		-1.27518330		-0.84142295		0.18356791		0
C		4.71348817		4.73403770		0.85792878		2.11182940		-0.36818714		0.49788294		0
C		4.34034818		4.33314815		3.28575856		1.22238335		0.72655163		0.46312186		0
16
Lattice="4.958682183235 0.0 0.0 0.6844865712093928 7.884007150412655 0.0 -1.0062207473042293 0.2846977788682543 4.053415246499252" Properties=species:S:1:pos:R:3:force:R:3:tags:I:1 config_type=shaiducarbon energy=-4056.555108585308 unit_cell=conventional pbc="T T T"
C		0.31527797		0.33992808		1.35132966		0.75207191		0.21372903		0.84985901		0
C		1.52054964		1.11724961		2.05346914		-0.63021901		-1.23000616		0.59522318		0
C		1.12269970		2.90188875		0.51463981		0.59401425		-0.49353623		0.50937218		0
C		1.89711941		2.31801929		1.65073935		-0.29995053		-0.29627847		0.68255231		0
C		1.91642951		4.06376848		0.53107089		-0.67946107		0.79754705		-1.87433976		0
C		0.17128776		5.95929813		2.47251894		0.35031565		-0.35939859		-0.14690729		0
C		0.92278646		5.41433797		3.71901858		-0.84240075		-0.36452409		-0.55650054		0
C		2.10219910		7.28204743		3.37356901		-0.40754176		0.06067628		-0.63754512		0
C		0.98247461		7.10422760		2.27065941		-0.46252742		1.06804428		-0.86829486		0
C		4.46189859		0.85406854		0.11097481		0.11623992		1.39385652		0.05451746		0
C		2.16936941		0.54322066		3.30553887		0.92539242		0.79882823		-0.81012721		0
C		3.02287911		3.09250892		2.40275920		0.42362480		-0.89820350		0.29790161		0
C		3.88779873		2.52612923		3.74124885		-0.41370984		-0.51943086		-0.66081567		0
C		3.09242909		4.20200860		1.53991925		-0.75014461		-0.16949471		1.02151961		0
C		3.06641881		5.92753777		0.15727899		0.75372821		0.39575659		1.12637751		0
C		3.78198888		5.44725816		1.38478936		0.57056808		-0.39756459		0.41720732		0
16
Lattice="5.431058911586 0.0 0.0 -2.5709112190952883 5.1802308868133125 0.0 -2.6500200232014497 -0.03539964198571755 5.09512619366876" Properties=species:S:1:pos:R:3:force:R:3:tags:I:1 config_type=shaiducarbon energy=-4060.2290980919915 unit_cell=conventional pbc="T T T"
C		0.70141148		0.01164202		1.81757936		-0.58772790		-0.13965909		0.45767240		0
C		-0.65693274		0.73448066		1.84368917		0.03500354		1.46758862		0.34033976		0
C		-0.68959567		1.95646891		0.77144173		2.17055242		-0.33472189		1.47034973		0
C		0.71101359		2.00892914		0.03467731		-0.47590411		-1.05142131		-1.06159029		0
C		-0.59615485		1.82604909		3.04019870		0.09244331		0.28523918		-0.73883380		0
C		-1.93917914		1.78559911		3.80094830		-0.39674004		1.15128740		-0.07991483		0
C		-0.58164469		3.02958858		1.93248916		-0.99016344		0.27110093		0.59180747		0
C		-1.91375906		3.87592842		1.93044925		0.01663608		-1.95934153		-0.32827819		0
C		2.03462891		0.75246887		1.87001949		0.91217308		1.66713106		-0.25111521		0
C		3.39528839		-0.02168676		1.88755909		-0.61517187		0.31190591		-0.36885409		0
C		2.07021918		1.97174920		0.79858942		0.33507131		-0.71973692		-0.17340124		0
C		3.44259835		1.91147911		0.04999398		-1.24129871		0.63353239		-1.12735787		0
C		0.77412793		1.83422935		3.81523851		-0.12179222		0.10956585		-0.88291005		0
C		2.10826918		1.85421945		3.00686884		0.24431310		0.25039710		0.41438116		0
C		2.14291934		3.09703853		1.85902920		-0.40624875		-1.17452454		2.28139276		0
C		0.76151755		3.83335815		1.94515928		1.02885421		-0.76834289		-0.54368744		0
16
Lattice="4.975892606806 0.0 0.0 -2.2970213040798537 4.202728461775271 0.0 0.37354025799292645 0.7250522394155228 8.297962715565712" Properties=species:S:1:pos:R:3:force:R:3:tags:I:1 config_type=shaiducarbon energy=-4066.1998171889527 unit_cell=conventional pbc="T T T"
C		-0.01806448		2.16278914		3.40972892		-0.48269671		-1.65891458		1.86515603		0
C		0.77003481		2.64405896		8.16219698		5.71135809		-1.55566799		0.95079005		0
C		0.76803549		1.25654972		8.33909693		-1.37149305		-2.00938449		-1.19830700		0
C		-1.17820976		4.22672868		3.54805873		1.67846500		2.35541436		0.06150084		0
C		-0.36098907		3.28191864		8.37091726		-4.76068657		2.25741746		-1.01710323		0
C		1.18919952		1.49765958		3.51199893		1.36071575		-2.95016446		0.17889595		0
C		0.08047213		3.50512872		3.59269896		-1.91011695		3.87084713		-0.15501424		0
C		-0.31939110		4.66873822		8.27647681		-1.63400648		3.54890671		0.98451858		0
C		2.44940901		2.21243909		3.57880875		1.09786652		-2.75536082		-0.46541554		0
C		3.16041878		1.25869931		8.34510681		1.60329437		-0.12324130		-0.57852437		0
C		3.26343867		2.69132895		8.33170723		1.53703777		-2.03642326		-0.38807438		0
C		1.32333963		4.24078857		3.72689878		-0.88571615		2.16879609		-1.96754567		0
C		2.12081947		3.42711867		8.12338701		-3.19529517		-3.06449354		1.36696225		0
C		3.70002846		1.47853971		3.61201885		-1.83032553		-0.55555643		-0.48572753		0
C		2.52438924		3.59218893		3.52288868		1.01105419		-0.50293516		1.01722561		0
C		2.09852946		4.76215812		8.31338699		2.07054517		3.01076027		-0.16933761		0
16
Lattice="7.851492284152 0.0 0.0 0.17259150339022927 4.712473520440315 0.0 0.12462673702634472 -1.6672094260936883 4.26869932504776" Properties=species:S:1:pos:R:3:force:R:3:tags:I:1 config_type=shaiducarbon energy=-4058.5132761618243 unit_cell=conventional pbc="T T T"
C		0.46388972		3.01922855		0.70974193		0.99033982		0.33792678		-0.54587159		0
C		0.56884297		2.49968902		2.08626948		0.37945424		-0.44728796		0.76472020		0
C		1.44467929		3.90457852		0.31285292		-0.88712923		1.87984321		-1.96312722		0
C		1.53327946		2.83739898		3.15229878		0.70625379		1.16176620		-0.64281999		0
C		2.14573904		-0.34130123		1.29187983		1.71228455		-0.34717401		3.46521776		0
C		3.14284872		0.53391168		0.94745449		-1.61781083		0.37105701		-4.52842013		0
C		2.34298894		-0.90448799		2.72783925		-3.29523171		-0.79174278		-0.11831223		0
C		4.52308846		0.01766350		0.74307073		-0.71967058		0.50555023		1.37022652		0
C		3.25368902		-0.62619655		3.78182829		0.42142882		-1.65081251		0.76671101		0
C		4.61976781		-1.19404945		3.69824837		1.71891260		1.13238387		1.01683069		0
C		5.44944756		0.26426082		1.77887963		2.96668972		-1.01251946		2.37680184		0
C		5.66460750		-0.43459266		3.19095874		-0.22992776		2.01644757		-1.76176624		0
C		6.37233709		1.24878927		1.46894904		2.95006830		-0.71898718		-1.13275436		0
C		6.58057751		0.04542167		4.19558858		0.09167687		-0.36919424		1.75707809		0
C		7.56145659		1.51372924		2.47278902		-3.35133811		-0.49638553		0.11355054		0
C		7.56787675		1.01484935		3.90062843		-1.83600047		-1.57087119		-0.93806488		0
16
Lattice="4.637999862880999 0.0 0.0 0.22826843925141416 4.559928411189124 0.0 -0.18656818248425108 0.017244083490191554 4.586086730415772" Properties=species:S:1:pos:R:3:force:R:3:tags:I:1 config_type=shaiducarbon energy=-4055.076885817662 unit_cell=conventional pbc="T T T"
C		0.85181042		1.52721915		1.83524912		1.12788521		-1.10841114		0.69980108		0
C		1.01544972		3.21682858		1.87568924		-0.43469263		1.31144463		-1.44419259		0
C		1.79069928		0.97077279		0.85666965		0.69437502		0.01153012		0.83259789		0
C		0.93437563		1.55443910		4.21959801		0.60625759		-0.33727680		-0.71896944		0
C		1.61142946		0.97441965		3.10872886		-1.24710324		-0.45676866		-0.64686794		0
C		2.00283908		3.78975839		0.87068754		-0.67419262		-1.04107415		0.71366577		0
C		1.09872964		3.23969856		4.23889812		-0.16148237		0.21433530		-1.26519893		0
C		1.78451915		3.76741853		3.09515854		-0.79671786		0.56269227		0.62122065		0
C		3.07765890		1.56601926		1.48641959		-0.10135399		0.05969952		1.10492395		0
C		3.01645864		1.55708926		3.06939863		0.21358582		0.01790081		1.21783198		0
C		3.22626877		3.12173845		1.48876920		0.04126341		1.32432612		0.78594596		0
C		3.15753871		3.14343873		3.06423885		-0.70587841		0.25509297		0.71952917		0
C		4.21973808		0.86474348		1.16338939		0.46422743		-0.04723814		-0.44297365		0
C		4.13015836		0.91973578		4.18643817		0.91797015		-0.39765869		-1.01309127		0
C		4.41533830		3.84320855		1.19212969		0.02068351		-0.10915653		-0.90433198		0
C		4.35372804		3.87512820		4.19188828		0.03517298		-0.25943788		-0.25989065		0
24
Lattice="7.860949735496 0.0 0.0 -1.7606955217563942 6.816386734643292 0.0 0.7640528704912694 1.1373457905807678 4.315732153334923" Properties=species:S:1:pos:R:3:force:R:3:tags:I:1 config_type=shaiducarbon energy=-6077.156401636007 unit_cell=conventional pbc="T T T"
C		4.17296630		5.22560800		0.91287637		0.60394488		-0.46705359		0.76122710		0
C		3.07818048		0.23708624		0.08377257		0.41784881		-0.79669087		-0.01255831		0
C		0.60048380		0.24717892		0.86727186		1.08355755		0.64020261		-0.67399953		0
C		1.72866058		0.67533419		0.12076698		-0.98554960		-0.50365379		0.73213016		0
C		4.47017780		1.84311837		3.18825893		0.31779425		-0.04020180		0.90090033		0
C		1.14101764		5.40397531		2.20532106		1.22557486		1.39229123		0.72136854		0
C		2.90882103		5.13284093		0.38490276		0.09230962		0.61439694		-0.94820044		0
C		3.44432701		2.49180630		2.34606114		-0.60294884		0.15371018		-0.34709817		0
C		-0.03967343		5.04174746		1.52209762		-0.85039200		-0.44803950		0.97638309		0
C		1.73273177		5.80978583		0.84929701		1.02448924		-1.43026645		0.45023111		0
C		4.37355887		5.58570003		2.33531916		0.31623333		-0.75357755		-0.70375750		0
C		1.76371255		5.63394818		3.39481796		0.62319346		-1.00984962		-1.04954697		0
C		3.31813125		5.41565668		3.46125006		1.13191773		1.65957252		0.32042629		0
C		3.36210619		4.05650004		4.18799722		-0.28143883		-0.54787037		0.40378075		0
C		0.65414579		4.87784744		0.34261714		-0.91462720		0.11121290		-1.61165689		0
C		2.55790116		2.95457726		3.52047053		0.32426264		1.24191089		0.81124872		0
C		3.23862010		2.82532124		1.07494950		-0.86887773		-0.88796433		-0.37512218		0
C		6.68842777		2.26491806		4.29053938		2.66422826		-0.30714062		0.32243613		0
C		5.90415968		6.10812695		4.19905837		1.13907491		-0.14293699		0.98634535		0
C		6.09551956		1.53685655		1.49464954		4.17189835		-0.48010735		-1.17238666		0
C		5.72407947		5.81625697		2.84550737		-1.37119171		0.10181371		0.50020645		0
C		6.73198843		5.85989546		1.77106804		-2.91182543		1.90095276		-1.59767214		0
C		5.89910352		1.94391068		2.97219994		-1.34823766		-0.36927755		0.11518243		0
C		7.25548760		1.06856169		0.67799670		-5.00123891		0.36856664		0.49013209		0
16
Lattice="4.895895861362 0.0 0.0 1.3666256830530046 4.0983593214419916 0.0 0.4643512429708789 0.6868941893490886 5.025808458043241" Properties=species:S:1:pos:R:3:force:R:3:tags:I:1 config_type=shaiducarbon energy=-4058.2876621226724 unit_cell=conventional pbc="T T T"
C		1.54163927		0.42082085		1.67381916		-0.29444553		-1.26859048		1.33345817		0
C		1.51325923		1.90506897		1.69517946		-0.75802607		-0.32207643		1.18153928		0
C		1.71245953		0.72631594		4.20157803		0.94300578		0.57917512		0.59768579		0
C		1.71906948		2.28265906		4.21030839		-0.38716730		-1.97071893		0.33236985		0
C		1.99460903		3.79217832		0.48113976		0.68887620		-0.08723066		-1.36304002		0
C		2.10075890		2.24476923		0.44959501		0.78604778		1.79577630		-1.24616684		0
C		2.42107876		2.55382902		2.94901888		-0.92087139		2.09501412		-0.00520443		0
C		2.28214891		4.12188851		2.96382897		0.10194226		-0.52752058		-0.53269828		0
C		3.88091839		0.22108593		0.46299802		-0.19289691		0.61313530		-0.66917511		0
C		3.82351842		1.75445946		0.44789858		-0.15025590		-1.01932132		0.51641444		0
C		4.12049807		0.51955883		2.95113881		-0.19007255		1.68716125		-0.06608537		0
C		4.09858845		2.06954904		2.96074896		-1.34600877		-1.03564269		1.34933166		0
C		4.66823817		2.45389889		1.72846911		0.70376856		1.03978243		-2.03691511		0
C		4.57198829		4.01304834		1.70174927		0.41335555		-2.18860312		0.76995394		0
C		4.80676804		4.31079812		4.21117839		0.59347637		-1.06842531		0.18213246		0
C		4.93138817		2.75681874		4.21120825		0.00927166		1.67808525		-0.34360043		0
16
Lattice="7.414228566458999 0.0 0.0 0.0761886127489327 6.015074665225389 0.0 -0.04957894642391133 0.12378796014559945 2.672821983979903" Properties=species:S:1:pos:R:3:force:R:3:tags:I:1 config_type=shaiducarbon energy=-4058.393083697224 unit_cell=conventional pbc="T T T"
C		0.10682717		1.72650915		1.04189930		2.35455278		0.47915887		-0.59397877		0
C		0.76213302		2.08078916		2.35848909		-2.72690846		0.16133171		-0.00793520		0
C		0.39587458		4.78229828		1.06897977		-1.17529896		0.71642534		-3.10716051		0
C		2.64112912		2.59915866		0.89289851		1.06992478		-1.05716233		3.74953262		0
C		1.96084918		2.72142893		2.33141900		-0.93333276		-1.27459504		-3.52773443		0
C		1.57124927		5.41479796		1.08007961		1.19604160		-0.29335384		-1.93129566		0
C		2.21837945		5.51535788		2.37011905		-1.74623831		0.65859732		0.21916460		0
C		3.82717882		1.92525940		0.95037287		1.25246168		0.87414130		0.53527941		0
C		4.12334833		4.84920798		0.89037990		2.21391333		-2.67935844		2.16983431		0
C		3.44821832		5.01266800		2.25628914		2.58250260		2.25875058		0.06194718		0
C		5.62334761		1.04304924		2.33206923		0.89836625		1.86595102		0.62453635		0
C		4.46269832		1.73307963		2.32455936		-3.29876492		-1.00431532		-0.78450769		0
C		5.39555804		4.23612839		1.01758953		-5.15848898		-0.33452752		-5.11633469		0
C		6.29252770		1.17611982		1.00840923		0.89708404		-1.36410960		0.09139482		0
C		5.95289746		4.01102870		2.24047904		-0.44575661		1.77443613		5.03110692		0
C		7.15008704		4.60015811		2.30160935		3.01994220		-0.78136991		2.58615099		0
16
Lattice="6.977880854153001 0.0 0.0 -0.5816970816447565 4.793504097926383 0.0 -0.9207244008246344 -1.418652022815284 4.901961300042482" Properties=species:S:1:pos:R:3:force:R:3:tags:I:1 config_type=shaiducarbon energy=-4057.7217352885327 unit_cell=conventional pbc="T T T"
C		1.24913976		0.11797224		1.69888930		0.48047039		-0.01451877		1.02144968		0
C		1.09490975		1.63238940		1.72464954		-0.58546558		1.38987105		1.06354407		0
C		0.91625297		-0.60596545		4.22285858		0.03559772		0.20282446		-1.33032425		0
C		0.74258748		0.95493346		4.19801872		-1.00389289		0.39626849		1.05822394		0
C		1.29006922		2.89260864		0.51068807		0.16125843		-0.95984677		-0.89079949		0
C		1.07908950		4.40947852		0.51897989		0.16714857		0.17259700		-0.51063177		0
C		0.71241372		2.17835903		2.93782879		1.56145169		-1.07317055		-1.03211925		0
C		0.61508485		3.71320882		2.96345925		-0.71265121		-0.07861308		0.62851154		0
C		4.98243790		0.86169990		0.64202575		0.03081804		-0.34165899		0.54511877		0
C		4.71194802		0.37772316		2.25602913		0.31845683		-0.47246988		-1.36374322		0
C		4.62754846		3.32907857		0.75999589		0.66021069		-0.67610835		0.43225471		0
C		4.68100810		4.47294862		-0.10669529		0.16328317		0.18452616		0.07731030		0
C		4.99056852		2.13832902		0.01638825		-0.43472246		0.91704096		0.09581172		0
C		4.14154883		2.75026894		3.37828868		0.34633455		-1.63247590		0.23641389		0
C		4.34751843		3.64038835		2.22440886		-0.77968455		1.05598965		-0.68650024		0
C		4.35796850		1.18212977		3.38311877		-0.40861340		0.92974427		0.65548012		0
16
Lattice="9.269720511480001 0.0 0.0 0.604654599243329 8.708244270379145 0.0 0.12247154739767377 -0.32362448249678977 2.6222741566105316" Properties=species:S:1:pos:R:3:force:R:3:tags:I:1 config_type=shaiducarbon energy=-4050.4687629599616 unit_cell=conventional pbc="T T T"
C		9.18389217		4.05251138		2.01213003		0.91268165		1.02951575		-0.42210862		0
C		2.91075713		2.06352785		0.14425910		-2.19067748		-0.72184137		-0.20991274		0
C		4.25000463		1.86376537		2.49969879		0.95827146		-0.27844863		-1.74406418		0
C		1.20230963		3.42641129		1.75666024		-0.44819248		0.11093830		0.30902601		0
C		1.53840467		3.01091739		0.35436566		0.31709928		-0.43933553		-0.16669555		0
C		0.66731791		8.42254407		1.31081078		0.30093269		0.15049090		0.05253822		0
C		1.50728251		1.41973371		0.12515606		1.04425975		-0.74533099		0.33409146		0
C		1.03863974		0.62566349		1.38326941		0.93544210		1.20837159		0.08447032		0
C		8.08128672		3.06343128		2.14321964		1.24277555		0.84370147		-0.19804786		0
C		8.03011230		5.95553495		0.76014118		-1.89820450		1.14089705		0.19693920		0
C		8.54648116		5.43173456		2.00695845		1.45746129		-1.95995628		0.21968474		0
C		6.17571769		2.33443821		0.87875189		1.14356895		0.22014934		-0.66555988		0
C		7.48482100		2.89751163		0.82020434		-1.13323490		-1.07394599		0.56620697		0
C		5.61776395		2.00569035		2.20222882		-2.85996418		-0.16277692		1.36131327		0
C		6.59283936		6.56981430		0.88566432		0.34077710		0.21807368		0.26869154		0
C		6.17635823		6.57667389		2.23948105		-0.12299704		0.45949763		0.01342708		0
16
Lattice="4.511925559339 0.0 0.0 0.5720128985618798 5.058008421711359 0.0 -0.33329142914281257 -0.8449934187530079 4.067848310012177" Properties=species:S:1:pos:R:3:force:R:3:tags:I:1 config_type=shaiducarbon energy=-4057.85406798146 unit_cell=conventional pbc="T T T"
C		0.38231079		0.80209358		1.85740905		2.03337676		0.75298491		-5.78806059		0
C		0.55152470		0.85138952		3.17349849		-3.56621488		-0.66352588		7.16071963		0
C		0.70220361		3.32834867		1.88318929		-0.45975037		0.33081536		0.41939481		0