2
Lattice="9.07538555 0.0 0.0 0.0 9.07538555 0.0 0.0 0.0 9.07538555" Properties=species:S:1:pos:R:3:force:R:3:tags:I:1 config_type=shaiducarbon energy=-493.75944712617854 unit_cell=conventional pbc="T T T"
C		0.00000000		0.00000000		0.00000000		2.11268534		2.11268534		2.11268534		0
C		1.39279386		1.39279386		1.39279386		-2.11268534		-2.11268534		-2.11268534		0
2
Lattice="9.07538555 0.0 0.0 0.0 9.07538555 0.0 0.0 0.0 9.07538555" Properties=species:S:1:pos:R:3:force:R:3:tags:I:1 config_type=shaiducarbon energy=-494.76264986719565 unit_cell=conventional pbc="T T T"
C		0.00000000		0.00000000		0.00000000		2.56735281		2.56735281		2.56735281		0
C		1.24991607		1.24991607		1.24991607		-2.56735281		-2.56735281		-2.56735281		0
2
Lattice="9.07538555 0.0 0.0 0.0 9.07538555 0.0 0.0 0.0 9.07538555" Properties=species:S:1:pos:R:3:force:R:3:tags:I:1 config_type=shaiducarbon energy=-499.2121053637257 unit_cell=conventional pbc="T T T"
C		0.00000000		0.00000000		0.00000000		0.59277862		0.59277862		0.59277862		0
C		0.75090216		0.75090216		0.75090216		-0.59277862		-0.59277862		-0.59277862		0
2
Lattice="9.07538555 0.0 0.0 0.0 9.07538555 0.0 0.0 0.0 9.07538555" Properties=species:S:1:pos:R:3:force:R:3:tags:I:1 config_type=shaiducarbon energy=-487.842625092899 unit_cell=conventional pbc="T T T"
C		0.00000000		0.00000000		0.00000000		-51.54432478		-51.54432478		-51.54432478		0
C		0.51383087		0.51383087		0.51383087		51.54432478		51.54432478		51.54432478		0
2
Lattice="9.07538555 0.0 0.0 0.0 9.07538555 0.0 0.0 0.0 9.07538555" Properties=species:S:1:pos:R:3:force:R:3:tags:I:1 config_type=shaiducarbon energy=-498.5936171821595 unit_cell=conventional pbc="T T T"
C		0.00000000		0.00000000		0.00000000		3.17215889		3.17215889		3.17215889		0
C		0.84615402		0.84615402		0.84615402		-3.17215889		-3.17215889		-3.17215889		0
2
Lattice="9.07538555 0.0 0.0 0.0 9.07538555 0.0 0.0 0.0 9.07538555" Properties=species:S:1:pos:R:3:force:R:3:tags:I:1 config_type=shaiducarbon energy=-493.2978822019913 unit_cell=conventional pbc="T T T"
C		0.00000000		0.00000000		0.00000000		1.87282627		1.87282627		1.87282627		0
C		1.47005371		1.47005371		1.47005371		-1.87282627		-1.87282627		-1.87282627		0
2
Lattice="9.07538555 0.0 0.0 0.0 9.07538555 0.0 0.0 0.0 9.07538555" Properties=species:S:1:pos:R:3:force:R:3:tags:I:1 config_type=shaiducarbon energy=-491.2884401060565 unit_cell=conventional pbc="T T T"
C		0.00000000		0.00000000		0.00000000		0.43700239		0.43700239		0.43700239		0
C		2.10242022		2.10242022		2.10242022		-0.43700239		-0.43700239		-0.43700239		0
2
Lattice="9.07538555 0.0 0.0 0.0 9.07538555 0.0 0.0 0.0 9.07538555" Properties=species:S:1:pos:R:3:force:R:3:tags:I:1 config_type=shaiducarbon energy=-396.20573920636997 unit_cell=conventional pbc="T T T"
C		0.00000000		0.00000000		0.00000000		-298.54462401		-298.54462401		-298.54462401		0
C		0.30903937		0.30903937		0.30903937		298.54462401		298.54462401		298.54462401		0
2
Lattice="9.07538555 0.0 0.0 0.0 9.07538555 0.0 0.0 0.0 9.07538555" Properties=species:S:1:pos:R:3:force:R:3:tags:I:1 config_type=shaiducarbon energy=-490.9657895442381 unit_cell=conventional pbc="T T T"
C		0.00000000		0.00000000		0.00000000		-40.31017641		-40.31017641		-40.31017641		0
C		0.53658548		0.53658548		0.53658548		40.31017641		40.31017641		40.31017641		0
2
Lattice="9.07538555 0.0 0.0 0.0 9.07538555 0.0 0.0 0.0 9.07538555" Properties=species:S:1:pos:R:3:force:R:3:tags:I:1 config_type=shaiducarbon energy=-492.706633459155 unit_cell=conventional pbc="T T T"
C		0.00000000		0.00000000		0.00000000		1.53393932		1.53393932		1.53393932		0
C		1.58594347		1.58594347		1.58594347		-1.53393932		-1.53393932		-1.53393932		0
2
Lattice="9.07538555 0.0 0.0 0.0 9.07538555 0.0 0.0 0.0 9.07538555" Properties=species:S:1:pos:R:3:force:R:3:tags:I:1 config_type=shaiducarbon energy=-491.0294575476918 unit_cell=conventional pbc="T T T"
C		0.00000000		0.00000000		0.00000000		0.18004700		0.18004700		0.18004700		0
C		2.39452593		2.39452593		2.39452593		-0.18004700		-0.18004700		-0.18004700		0
2
Lattice="9.07538555 0.0 0.0 0.0 9.07538555 0.0 0.0 0.0 9.07538555" Properties=species:S:1:pos:R:3:force:R:3:tags:I:1 config_type=shaiducarbon energy=-490.88782324818516 unit_cell=conventional pbc="T T T"
C		0.00000000		0.00000000		0.00000000		-0.00104881		-0.00104881		-0.00104881		0
C		3.98417363		3.98417363		3.98417363		0.00104881		0.00104881		0.00104881		0
2
Lattice="9.07538555 0.0 0.0 0.0 9.07538555 0.0 0.0 0.0 9.07538555" Properties=species:S:1:pos:R:3:force:R:3:tags:I:1 config_type=shaiducarbon energy=-499.19210349355797 unit_cell=conventional pbc="T T T"
C		0.00000000		0.00000000		0.00000000		0.97843384		0.97843384		0.97843384		0
C		0.75936899		0.75936899		0.75936899		-0.97843384		-0.97843384		-0.97843384		0
2
Lattice="9.07538555 0.0 0.0 0.0 9.07538555 0.0 0.0 0.0 9.07538555" Properties=species:S:1:pos:R:3:force:R:3:tags:I:1 config_type=shaiducarbon energy=-473.02001442208626 unit_cell=conventional pbc="T T T"
C		0.00000000		0.00000000		0.00000000		-99.83691172		-99.83691172		-99.83691172		0
C		0.44662539		0.44662539		0.44662539		99.83691172		99.83691172		99.83691172		0
2
Lattice="9.07538555 0.0 0.0 0.0 9.07538555 0.0 0.0 0.0 9.07538555" Properties=species:S:1:pos:R:3:force:R:3:tags:I:1 config_type=shaiducarbon energy=-426.81226796398624 unit_cell=conventional pbc="T T T"
C		0.00000000		0.00000000		0.00000000		-225.52675135		-225.52675135		-225.52675135		0
C		0.34819847		0.34819847		0.34819847		225.52675135		225.52675135		225.52675135		0
2
Lattice="9.07538555 0.0 0.0 0.0 9.07538555 0.0 0.0 0.0 9.07538555" Properties=species:S:1:pos:R:3:force:R:3:tags:I:1 config_type=shaiducarbon energy=-490.8902911541854 unit_cell=conventional pbc="T T T"
C		0.00000000		0.00000000		0.00000000		0.00200824		0.00200824		0.00200824		0
C		3.38673280		3.38673280		3.38673280		-0.00200824		-0.00200824		-0.00200824		0
2
Lattice="9.07538555 0.0 0.0 0.0 9.07538555 0.0 0.0 0.0 9.07538555" Properties=species:S:1:pos:R:3:force:R:3:tags:I:1 config_type=shaiducarbon energy=-494.8695414933665 unit_cell=conventional pbc="T T T"
C		0.00000000		0.00000000		0.00000000		2.61094977		2.61094977		2.61094977		0
C		1.23615747		1.23615747		1.23615747		-2.61094977		-2.61094977		-2.61094977		0
2
Lattice="9.07538555 0.0 0.0 0.0 9.07538555 0.0 0.0 0.0 9.07538555" Properties=species:S:1:pos:R:3:force:R:3:tags:I:1 config_type=shaiducarbon energy=-499.20947082215486 unit_cell=conventional pbc="T T T"
C		0.00000000		0.00000000		0.00000000		-0.71989299		-0.71989299		-0.71989299		0
C		0.72708920		0.72708920		0.72708920		0.71989299		0.71989299		0.71989299		0
2
Lattice="9.07538555 0.0 0.0 0.0 9.07538555 0.0 0.0 0.0 9.07538555" Properties=species:S:1:pos:R:3:force:R:3:tags:I:1 config_type=shaiducarbon energy=-490.91335715632306 unit_cell=conventional pbc="T T T"
C		0.00000000		0.00000000		0.00000000		0.03689378		0.03689378		0.03689378		0
C		2.81680917		2.81680917		2.81680917		-0.03689378		-0.03689378		-0.03689378		0
2
Lattice="9.07538555 0.0 0.0 0.0 9.07538555 0.0 0.0 0.0 9.07538555" Properties=species:S:1:pos:R:3:force:R:3:tags:I:1 config_type=shaiducarbon energy=-457.8247863654658 unit_cell=conventional pbc="T T T"
C		0.00000000		0.00000000		0.00000000		-144.42667532		-144.42667532		-144.42667532		0
C		0.40482040		0.40482040		0.40482040		144.42667532		144.42667532		144.42667532		0
2
Lattice="9.07538555 0.0 0.0 0.0 9.07538555 0.0 0.0 0.0 9.07538555" Properties=species:S:1:pos:R:3:force:R:3:tags:I:1 config_type=shaiducarbon energy=-498.50659074842764 unit_cell=conventional pbc="T T T"
C		0.00000000		0.00000000		0.00000000		3.26959070		3.26959070		3.26959070		0
C		0.85515003		0.85515003		0.85515003		-3.26959070		-3.26959070		-3.26959070		0
2
Lattice="9.07538555 0.0 0.0 0.0 9.07538555 0.0 0.0 0.0 9.07538555" Properties=species:S:1:pos:R:3:force:R:3:tags:I:1 config_type=shaiducarbon energy=-490.88782147016275 unit_cell=conventional pbc="T T T"
C		0.00000000		0.00000000		0.00000000		0.00186435		0.00186435		0.00186435		0
C		4.02756615		4.02756615		4.02756615		-0.00186435		-0.00186435		-0.00186435		0
2
Lattice="9.07538555 0.0 0.0 0.0 9.07538555 0.0 0.0 0.0 9.07538555" Properties=species:S:1:pos:R:3:force:R:3:tags:I:1 config_type=shaiducarbon energy=-496.18332300844605 unit_cell=conventional pbc="T T T"
C		0.00000000		0.00000000		0.00000000		-19.95891081		-19.95891081		-19.95891081		0
C		0.59797001		0.59797001		0.59797001		19.95891081		19.95891081		19.95891081		0
2
Lattice="9.07538555 0.0 0.0 0.0 9.07538555 0.0 0.0 0.0 9.07538555" Properties=species:S:1:pos:R:3:force:R:3:tags:I:1 config_type=shaiducarbon energy=-490.8876338801678 unit_cell=conventional pbc="T T T"
C		0.00000000		0.00000000		0.00000000		0.00109357		0.00109357		0.00109357		0
C		4.11593871		4.11593871		4.11593871		-0.00109357		-0.00109357		-0.00109357		0
2
Lattice="9.07538555 0.0 0.0 0.0 9.07538555 0.0 0.0 0.0 9.07538555" Properties=species:S:1:pos:R:3:force:R:3:tags:I:1 config_type=shaiducarbon energy=-487.00129845576856 unit_cell=conventional pbc="T T T"
C		0.00000000		0.00000000		0.00000000		-54.46861246		-54.46861246		-54.46861246		0
C		0.50853910		0.50853910		0.50853910		54.46861246		54.46861246		54.46861246		0
2
Lattice="9.07538555 0.0 0.0 0.0 9.07538555 0.0 0.0 0.0 9.07538555" Properties=species:S:1:pos:R:3:force:R:3:tags:I:1 config_type=shaiducarbon energy=-496.9228547408045 unit_cell=conventional pbc="T T T"
C		0.00000000		0.00000000		0.00000000		3.38774733		3.38774733		3.38774733		0
C		1.00649465		1.00649465		1.00649465		-3.38774733		-3.38774733		-3.38774733		0
2
Lattice="9.07538555 0.0 0.0 0.0 9.07538555 0.0 0.0 0.0 9.07538555" Properties=species:S:1:pos:R:3:force:R:3:tags:I:1 config_type=shaiducarbon energy=-491.0033767042484 unit_cell=conventional pbc="T T T"
C		0.00000000		0.00000000		0.00000000		0.15247963		0.15247963		0.15247963		0
C		2.44691445		2.44691445		2.44691445		-0.15247963		-0.15247963		-0.15247963		0
2
Lattice="9.07538555 0.0 0.0 0.0 9.07538555 0.0 0.0 0.0 9.07538555" Properties=species:S:1:pos:R:3:force:R:3:tags:I:1 config_type=shaiducarbon energy=-438.7816306785485 unit_cell=conventional pbc="T T T"
C		0.00000000		0.00000000		0.00000000		-195.38138322		-195.38138322		-195.38138322		0
C		0.36724884		0.36724884		0.36724884		195.38138322		195.38138322		195.38138322		0
2
Lattice="9.07538555 0.0 0.0 0.0 9.07538555 0.0 0.0 0.0 9.07538555" Properties=species:S:1:pos:R:3:force:R:3:tags:I:1 config_type=shaiducarbon energy=-497.2560392994803 unit_cell=conventional pbc="T T T"
C		0.00000000		0.00000000		0.00000000		3.48898128		3.48898128		3.48898128		0
C		0.97421486		0.97421486		0.97421486		-3.48898128		-3.48898128		-3.48898128		0
2
Lattice="9.07538555 0.0 0.0 0.0 9.07538555 0.0 0.0 0.0 9.07538555" Properties=species:S:1:pos:R:3:force:R:3:tags:I:1 config_type=shaiducarbon energy=-497.80136537206226 unit_cell=conventional pbc="T T T"
C		0.00000000		0.00000000		0.00000000		3.56700092		3.56700092		3.56700092		0
C		0.92288469		0.92288469		0.92288469		-3.56700092		-3.56700092		-3.56700092		0
2
Lattice="9.07538555 0.0 0.0 0.0 9.07538555 0.0 0.0 0.0 9.07538555" Properties=species:S:1:pos:R:3:force:R:3:tags:I:1 config_type=shaiducarbon energy=-495.39849719963655 unit_cell=conventional pbc="T T T"
C		0.00000000		0.00000000		0.00000000		2.80860099		2.80860099		2.80860099		0
C		1.17106870		1.17106870		1.17106870		-2.80860099		-2.80860099		-2.80860099		0
2
Lattice="9.07538555 0.0 0.0 0.0 9.07538555 0.0 0.0 0.0 9.07538555" Properties=species:S:1:pos:R:3:force:R:3:tags:I:1 config_type=shaiducarbon energy=-441.2228273735485 unit_cell=conventional pbc="T T T"
C		0.00000000		0.00000000		0.00000000		-189.07369021		-189.07369021		-189.07369021		0
C		0.37148225		0.37148225		0.37148225		189.07369021		189.07369021		189.07369021		0
2
Lattice="9.07538555 0.0 0.0 0.0 9.07538555 0.0 0.0 0.0 9.07538555" Properties=species:S:1:pos:R:3:force:R:3:tags:I:1 config_type=shaiducarbon energy=-429.2850642191928 unit_cell=conventional pbc="T T T"
C		0.00000000		0.00000000		0.00000000		-219.43515715		-219.43515715		-219.43515715		0
C		0.35190271		0.35190271		0.35190271		219.43515715		219.43515715		219.43515715		0
2
Lattice="9.07538555 0.0 0.0 0.0 9.07538555 0.0 0.0 0.0 9.07538555" Properties=species:S:1:pos:R:3:force:R:3:tags:I:1 config_type=shaiducarbon energy=-490.88769296673104 unit_cell=conventional pbc="T T T"
C		0.00000000		0.00000000		0.00000000		-0.00108173		-0.00108173		-0.00108173		0
C		4.29850477		4.29850477		4.29850477		0.00108173		0.00108173		0.00108173		0
2
Lattice="9.07538555 0.0 0.0 0.0 9.07538555 0.0 0.0 0.0 9.07538555" Properties=species:S:1:pos:R:3:force:R:3:tags:I:1 config_type=shaiducarbon energy=-401.76621777617197 unit_cell=conventional pbc="T T T"
C		0.00000000		0.00000000		0.00000000		-285.35231315		-285.35231315		-285.35231315		0
C		0.31538949		0.31538949		0.31538949		285.35231315		285.35231315		285.35231315		0
2
Lattice="9.07538555 0.0 0.0 0.0 9.07538555 0.0 0.0 0.0 9.07538555" Properties=species:S:1:pos:R:3:force:R:3:tags:I:1 config_type=shaiducarbon energy=-498.41186891046686 unit_cell=conventional pbc="T T T"
C		0.00000000		0.00000000		0.00000000		3.35366909		3.35366909		3.35366909		0
C		0.86467522		0.86467522		0.86467522		-3.35366909		-3.35366909		-3.35366909		0
2
Lattice="9.07538555 0.0 0.0 0.0 9.07538555 0.0 0.0 0.0 9.07538555" Properties=species:S:1:pos:R:3:force:R:3:tags:I:1 config_type=shaiducarbon energy=-498.9070513247895 unit_cell=conventional pbc="T T T"
C		0.00000000		0.00000000		0.00000000		2.57857415		2.57857415		2.57857415		0
C		0.81016999		0.81016999		0.81016999		-2.57857415		-2.57857415		-2.57857415		0
2
Lattice="9.07538555 0.0 0.0 0.0 9.07538555 0.0 0.0 0.0 9.07538555" Properties=species:S:1:pos:R:3:force:R:3:tags:I:1 config_type=shaiducarbon energy=-492.3318898042145 unit_cell=conventional pbc="T T T"
C		0.00000000		0.00000000		0.00000000		1.29579780		1.29579780		1.29579780		0
C		1.67431603		1.67431603		1.67431603		-1.29579780		-1.29579780		-1.29579780		0
2
Lattice="9.07538555 0.0 0.0 0.0 9.07538555 0.0 0.0 0.0 9.07538555" Properties=species:S:1:pos:R:3:force:R:3:tags:I:1 config_type=shaiducarbon energy=-454.024306659301 unit_cell=conventional pbc="T T T"
C		0.00000000		0.00000000		0.00000000		-154.90714042		-154.90714042		-154.90714042		0
C		0.39635357		0.39635357		0.39635357		154.90714042		154.90714042		154.90714042		0
2
Lattice="9.07538555 0.0 0.0 0.0 9.07538555 0.0 0.0 0.0 9.07538555" Properties=species:S:1:pos:R:3:force:R:3:tags:I:1 config_type=shaiducarbon energy=-490.88759762371734 unit_cell=conventional pbc="T T T"
C		0.00000000		0.00000000		0.00000000		-0.00144129		-0.00144129		-0.00144129		0
C		4.44032421		4.44032421		4.44032421		0.00144129		0.00144129		0.00144129		0
2
Lattice="9.07538555 0.0 0.0 0.0 9.07538555 0.0 0.0 0.0 9.07538555" Properties=species:S:1:pos:R:3:force:R:3:tags:I:1 config_type=shaiducarbon energy=-499.1648228734665 unit_cell=conventional pbc="T T T"
C		0.00000000		0.00000000		0.00000000		1.30502497		1.30502497		1.30502497		0
C		0.76730665		0.76730665		0.76730665		-1.30502497		-1.30502497		-1.30502497		0
2
Lattice="9.07538555 0.0 0.0 0.0 9.07538555 0.0 0.0 0.0 9.07538555" Properties=species:S:1:pos:R:3:force:R:3:tags:I:1 config_type=shaiducarbon energy=-490.99197072452273 unit_cell=conventional pbc="T T T"
C		0.00000000		0.00000000		0.00000000		0.13616458		0.13616458		0.13616458		0
C		2.47337330		2.47337330		2.47337330		-0.13616458		-0.13616458		-0.13616458		0
2
Lattice="9.07538555 0.0 0.0 0.0 9.07538555 0.0 0.0 0.0 9.07538555" Properties=species:S:1:pos:R:3:force:R:3:tags:I:1 config_type=shaiducarbon energy=-490.88751811027936 unit_cell=conventional pbc="T T T"
C		0.00000000		0.00000000		0.00000000		0.00061663		0.00061663		0.00061663		0
C		4.34507235		4.34507235		4.34507235		-0.00061663		-0.00061663		-0.00061663		0
2
Lattice="9.07538555 0.0 0.0 0.0 9.07538555 0.0 0.0 0.0 9.07538555" Properties=species:S:1:pos:R:3:force:R:3:tags:I:1 config_type=shaiducarbon energy=-493.48857976196643 unit_cell=conventional pbc="T T T"
C		0.00000000		0.00000000		0.00000000		-30.58075562		-30.58075562		-30.58075562		0
C		0.56039844		0.56039844		0.56039844		30.58075562		30.58075562		30.58075562		0
2
Lattice="9.07538555 0.0 0.0 0.0 9.07538555 0.0 0.0 0.0 9.07538555" Properties=species:S:1:pos:R:3:force:R:3:tags:I:1 config_type=shaiducarbon energy=-496.59540597196184 unit_cell=conventional pbc="T T T"
C		0.00000000		0.00000000		0.00000000		3.26377054		3.26377054		3.26377054		0
C		1.03930363		1.03930363		1.03930363		-3.26377054		-3.26377054		-3.26377054		0
2
Lattice="9.07538555 0.0 0.0 0.0 9.07538555 0.0 0.0 0.0 9.07538555" Properties=species:S:1:pos:R:3:force:R:3:tags:I:1 config_type=shaiducarbon energy=-492.2854939996764 unit_cell=conventional pbc="T T T"
C		0.00000000		0.00000000		0.00000000		-35.34284385		-35.34284385		-35.34284385		0
C		0.54822737		0.54822737		0.54822737		35.34284385		35.34284385		35.34284385		0
2
Lattice="9.07538555 0.0 0.0 0.0 9.07538555 0.0 0.0 0.0 9.07538555" Properties=species:S:1:pos:R:3:force:R:3:tags:I:1 config_type=shaiducarbon energy=-497.9088691945762 unit_cell=conventional pbc="T T T"
C		0.00000000		0.00000000		0.00000000		3.55829922		3.55829922		3.55829922		0
C		0.91283033		0.91283033		0.91283033		-3.55829922		-3.55829922		-3.55829922		0
2
Lattice="9.07538555 0.0 0.0 0.0 9.07538555 0.0 0.0 0.0 9.07538555" Properties=species:S:1:pos:R:3:force:R:3:tags:I:1 config_type=shaiducarbon energy=-490.23868596089443 unit_cell=conventional pbc="T T T"
C		0.00000000		0.00000000		0.00000000		-42.98543707		-42.98543707		-42.98543707		0
C		0.53076453		0.53076453		0.53076453		42.98543707		42.98543707		42.98543707		0
2
Lattice="9.07538555 0.0 0.0 0.0 9.07538555 0.0 0.0 0.0 9.07538555" Properties=species:S:1:pos:R:3:force:R:3:tags:I:1 config_type=shaiducarbon energy=-495.2922485562908 unit_cell=conventional pbc="T T T"
C		0.00000000		0.00000000		0.00000000		2.76880590		2.76880590		2.76880590		0
C		1.18376895		1.18376895		1.18376895		-2.76880590		-2.76880590		-2.76880590		0
2
Lattice="9.07538555 0.0 0.0 0.0 9.07538555 0.0 0.0 0.0 9.07538555" Properties=species:S:1:pos:R:3:force:R:3:tags:I:1 config_type=shaiducarbon energy=-490.89062911716655 unit_cell=conventional pbc="T T T"
C		0.00000000		0.00000000		0.00000000		0.00544654		0.00544654		0.00544654		0
C		3.35021959		3.35021959		3.35021959		-0.00544654		-0.00544654		-0.00544654		0
2
Lattice="9.07538555 0.0 0.0 0.0 9.07538555 0.0 0.0 0.0 9.07538555" Properties=species:S:1:pos:R:3:force:R:3:tags:I:1 config_type=shaiducarbon energy=-498.6430184358303 unit_cell=conventional pbc="T T T"
C		0.00000000		0.00000000		0.00000000		-6.13960090		-6.13960090		-6.13960090		0
C		0.66676302		0.66676302		0.66676302		6.13960090		6.13960090		6.13960090		0
2
Lattice="9.07538555 0.0 0.0 0.0 9.07538555 0.0 0.0 0.0 9.07538555" Properties=species:S:1:pos:R:3:force:R:3:tags:I:1 config_type=shaiducarbon energy=-491.49837988912736 unit_cell=conventional pbc="T T T"
C		0.00000000		0.00000000		0.00000000		0.63078297		0.63078297		0.63078297		0
C		1.97012597		1.97012597		1.97012597		-0.63078297		-0.63078297		-0.63078297		0
2
Lattice="9.07538555 0.0 0.0 0.0 9.07538555 0.0 0.0 0.0 9.07538555" Properties=species:S:1:pos:R:3:force:R:3:tags:I:1 config_type=shaiducarbon energy=-496.2652768568723 unit_cell=conventional pbc="T T T"
C		0.00000000		0.00000000		0.00000000		3.13679143		3.13679143		3.13679143		0
C		1.07370013		1.07370013		1.07370013		-3.13679143		-3.13679143		-3.13679143		0
2
Lattice="9.07538555 0.0 0.0 0.0 9.07538555 0.0 0.0 0.0 9.07538555" Properties=species:S:1:pos:R:3:force:R:3:tags:I:1 config_type=shaiducarbon energy=-490.8883158471736 unit_cell=conventional pbc="T T T"
C		0.00000000		0.00000000		0.00000000		0.00000989		0.00000989		0.00000989		0
C		3.77409036		3.77409036		3.77409036		-0.00000989		-0.00000989		-0.00000989		0
2
Lattice="9.07538555 0.0 0.0 0.0 9.07538555 0.0 0.0 0.0 9.07538555" Properties=species:S:1:pos:R:3:force:R:3:tags:I:1 config_type=shaiducarbon energy=-490.88753685455373 unit_cell=conventional pbc="T T T"
C		0.00000000		0.00000000		0.00000000		-0.00046875		-0.00046875		-0.00046875		0
C		4.27733769		4.27733769		4.27733769		0.00046875		0.00046875		0.00046875		0
2
Lattice="9.07538555 0.0 0.0 0.0 9.07538555 0.0 0.0 0.0 9.07538555" Properties=species:S:1:pos:R:3:force:R:3:tags:I:1 config_type=shaiducarbon energy=-491.8849640134874 unit_cell=conventional pbc="T T T"
C		0.00000000		0.00000000		0.00000000		0.96278139		0.96278139		0.96278139		0
C		1.80661028		1.80661028		1.80661028		-0.96278139		-0.96278139		-0.96278139		0
2
Lattice="9.07538555 0.0 0.0 0.0 9.07538555 0.0 0.0 0.0 9.07538555" Properties=species:S:1:pos:R:3:force:R:3:tags:I:1 config_type=shaiducarbon energy=-490.9715398449019 unit_cell=conventional pbc="T T T"
C		0.00000000		0.00000000		0.00000000		0.11329577		0.11329577		0.11329577		0
C		2.52787853		2.52787853		2.52787853		-0.11329577		-0.11329577		-0.11329577		0
2
Lattice="9.07538555 0.0 0.0 0.0 9.07538555 0.0 0.0 0.0 9.07538555" Properties=species:S:1:pos:R:3:force:R:3:tags:I:1 config_type=shaiducarbon energy=-490.91681077601544 unit_cell=conventional pbc="T T T"
C		0.00000000		0.00000000		0.00000000		0.03908489		0.03908489		0.03908489		0
C		2.78664608		2.78664608		2.78664608		-0.03908489		-0.03908489		-0.03908489		0
2
Lattice="9.07538555 0.0 0.0 0.0 9.07538555 0.0 0.0 0.0 9.07538555" Properties=species:S:1:pos:R:3:force:R:3:tags:I:1 config_type=shaiducarbon energy=-491.6755829435248 unit_cell=conventional pbc="T T T"
C		0.00000000		0.00000000		0.00000000		0.78702074		0.78702074		0.78702074		0
C		1.88651601		1.88651601		1.88651601		-0.78702074		-0.78702074		-0.78702074		0
2
Lattice="9.07538555 0.0 0.0 0.0 9.07538555 0.0 0.0 0.0 9.07538555" Properties=species:S:1:pos:R:3:force:R:3:tags:I:1 config_type=shaiducarbon energy=-407.51387533298913 unit_cell=conventional pbc="T T T"
C		0.00000000		0.00000000		0.00000000		-271.77373713		-271.77373713		-271.77373713		0
C		0.32226879		0.32226879		0.32226879		271.77373713		271.77373713		271.77373713		0
2
Lattice="9.07538555 0.0 0.0 0.0 9.07538555 0.0 0.0 0.0 9.07538555" Properties=species:S:1:pos:R:3:force:R:3:tags:I:1 config_type=shaiducarbon energy=-499.1498513743434 unit_cell=conventional pbc="T T T"
C		0.00000000		0.00000000		0.00000000		-1.81531173		-1.81531173		-1.81531173		0
C		0.71121389		0.71121389		0.71121389		1.81531173		1.81531173		1.81531173		0
2
Lattice="9.07538555 0.0 0.0 0.0 9.07538555 0.0 0.0 0.0 9.07538555" Properties=species:S:1:pos:R:3:force:R:3:tags:I:1 config_type=shaiducarbon energy=-497.46747504913657 unit_cell=conventional pbc="T T T"
C		0.00000000		0.00000000		0.00000000		-12.93243284		-12.93243284		-12.93243284		0
C		0.62442886		0.62442886		0.62442886		12.93243284		12.93243284		12.93243284		0
2
Lattice="9.07538555 0.0 0.0 0.0 9.07538555 0.0 0.0 0.0 9.07538555" Properties=species:S:1:pos:R:3:force:R:3:tags:I:1 config_type=shaiducarbon energy=-498.49596387778377 unit_cell=conventional pbc="T T T"
C		0.00000000		0.00000000		0.00000000		-7.09486935		-7.09486935		-7.09486935		0
C		0.65935454		0.65935454		0.65935454		7.09486935		7.09486935		7.09486935		0
2
Lattice="9.07538555 0.0 0.0 0.0 9.07538555 0.0 0.0 0.0 9.07538555" Properties=species:S:1:pos:R:3:force:R:3:tags:I:1 config_type=shaiducarbon energy=-475.7497770765487 unit_cell=conventional pbc="T T T"
C		0.00000000		0.00000000		0.00000000		-91.31989965		-91.31989965		-91.31989965		0
C		0.45615057		0.45615057		0.45615057		91.31989965		91.31989965		91.31989965		0
2
Lattice="9.07538555 0.0 0.0 0.0 9.07538555 0.0 0.0 0.0 9.07538555" Properties=species:S:1:pos:R:3:force:R:3:tags:I:1 config_type=shaiducarbon energy=-497.6937200996321 unit_cell=conventional pbc="T T T"
C		0.00000000		0.00000000		0.00000000		3.56572125		3.56572125		3.56572125		0
C		0.93293905		0.93293905		0.93293905		-3.56572125		-3.56572125		-3.56572125		0
2
Lattice="9.07538555 0.0 0.0 0.0 9.07538555 0.0 0.0 0.0 9.07538555" Properties=species:S:1:pos:R:3:force:R:3:tags:I:1 config_type=shaiducarbon energy=-491.09507828439934 unit_cell=conventional pbc="T T T"
C		0.00000000		0.00000000		0.00000000		0.25348900		0.25348900		0.25348900		0
C		2.29292394		2.29292394		2.29292394		-0.25348900		-0.25348900		-0.25348900		0
2
Lattice="9.07538555 0.0 0.0 0.0 9.07538555 0.0 0.0 0.0 9.07538555" Properties=species:S:1:pos:R:3:force:R:3:tags:I:1 config_type=shaiducarbon energy=-455.95781708636406 unit_cell=conventional pbc="T T T"
C		0.00000000		0.00000000		0.00000000		-149.59894902		-149.59894902		-149.59894902		0
C		0.40058699		0.40058699		0.40058699		149.59894902		149.59894902		149.59894902		0
2
Lattice="9.07538555 0.0 0.0 0.0 9.07538555 0.0 0.0 0.0 9.07538555" Properties=species:S:1:pos:R:3:force:R:3:tags:I:1 config_type=shaiducarbon energy=-490.89663441108183 unit_cell=conventional pbc="T T T"
C		0.00000000		0.00000000		0.00000000		0.01118885		0.01118885		0.01118885		0
C		3.07187249		3.07187249		3.07187249		-0.01118885		-0.01118885		-0.01118885		0
2
Lattice="9.07538555 0.0 0.0 0.0 9.07538555 0.0 0.0 0.0 9.07538555" Properties=species:S:1:pos:R:3:force:R:3:tags:I:1 config_type=shaiducarbon energy=-494.97401184095224 unit_cell=conventional pbc="T T T"
C		0.00000000		0.00000000		0.00000000		2.65127966		2.65127966		2.65127966		0
C		1.22292805		1.22292805		1.22292805		-2.65127966		-2.65127966		-2.65127966		0
2
Lattice="9.07538555 0.0 0.0 0.0 9.07538555 0.0 0.0 0.0 9.07538555" Properties=species:S:1:pos:R:3:force:R:3:tags:I:1 config_type=shaiducarbon energy=-492.12809018332354 unit_cell=conventional pbc="T T T"
C		0.00000000		0.00000000		0.00000000		1.15029343		1.15029343		1.15029343		0
C		1.72987961		1.72987961		1.72987961		-1.15029343		-1.15029343		-1.15029343		0
2
Lattice="9.07538555 0.0 0.0 0.0 9.07538555 0.0 0.0 0.0 9.07538555" Properties=species:S:1:pos:R:3:force:R:3:tags:I:1 config_type=shaiducarbon energy=-494.55830877302975 unit_cell=conventional pbc="T T T"
C		0.00000000		0.00000000		0.00000000		2.48166453		2.48166453		2.48166453		0
C		1.27690410		1.27690410		1.27690410		-2.48166453		-2.48166453		-2.48166453		0
2
Lattice="9.07538555 0.0 0.0 0.0 9.07538555 0.0 0.0 0.0 9.07538555" Properties=species:S:1:pos:R:3:force:R:3:tags:I:1 config_type=shaiducarbon energy=-479.6613087378996 unit_cell=conventional pbc="T T T"
C		0.00000000		0.00000000		0.00000000		-78.85599147		-78.85599147		-78.85599147		0
C		0.47149671		0.47149671		0.47149671		78.85599147		78.85599147		78.85599147		0
2
Lattice="9.07538555 0.0 0.0 0.0 9.07538555 0.0 0.0 0.0 9.07538555" Properties=species:S:1:pos:R:3:force:R:3:tags:I:1 config_type=shaiducarbon energy=-492.78569490470005 unit_cell=conventional pbc="T T T"
C		0.00000000		0.00000000		0.00000000		1.58095098		1.58095098		1.58095098		0
C		1.56900980		1.56900980		1.56900980		-1.58095098		-1.58095098		-1.58095098		0
2
Lattice="9.07538555 0.0 0.0 0.0 9.07538555 0.0 0.0 0.0 9.07538555" Properties=species:S:1:pos:R:3:force:R:3:tags:I:1 config_type=shaiducarbon energy=-490.8882599205652 unit_cell=conventional pbc="T T T"
C		0.00000000		0.00000000		0.00000000		0.00226765		0.00226765		0.00226765		0
C		3.73334374		3.73334374		3.73334374		-0.00226765		-0.00226765		-0.00226765		0
2
Lattice="9.07538555 0.0 0.0 0.0 9.07538555 0.0 0.0 0.0 9.07538555" Properties=species:S:1:pos:R:3:force:R:3:tags:I:1 config_type=shaiducarbon energy=-491.64731838499375 unit_cell=conventional pbc="T T T"
C		0.00000000		0.00000000		0.00000000		-37.76390233		-37.76390233		-37.76390233		0
C		0.54240642		0.54240642		0.54240642		37.76390233		37.76390233		37.76390233		0
2
Lattice="9.07538555 0.0 0.0 0.0 9.07538555 0.0 0.0 0.0 9.07538555" Properties=species:S:1:pos:R:3:force:R:3:tags:I:1 config_type=shaiducarbon energy=-490.88802733313 unit_cell=conventional pbc="T T T"
C		0.00000000		0.00000000		0.00000000		0.00138011		0.00138011		0.00138011		0
C		3.81536617		3.81536617		3.81536617		-0.00138011		-0.00138011		-0.00138011		0
2
Lattice="9.07538555 0.0 0.0 0.0 9.07538555 0.0 0.0 0.0 9.07538555" Properties=species:S:1:pos:R:3:force:R:3:tags:I:1 config_type=shaiducarbon energy=-490.8944612194238 unit_cell=conventional pbc="T T T"
C		0.00000000		0.00000000		0.00000000		0.00930716		0.00930716		0.00930716		0
C		3.13907796		3.13907796		3.13907796		-0.00930716		-0.00930716		-0.00930716		0
2
Lattice="9.07538555 0.0 0.0 0.0 9.07538555 0.0 0.0 0.0 9.07538555" Properties=species:S:1:pos:R:3:force:R:3:tags:I:1 config_type=shaiducarbon energy=-404.895890291802 unit_cell=conventional pbc="T T T"
C		0.00000000		0.00000000		0.00000000		-277.95666174		-277.95666174		-277.95666174		0
C		0.31909373		0.31909373		0.31909373		277.95666174		277.95666174		277.95666174		0
2
Lattice="9.07538555 0.0 0.0 0.0 9.07538555 0.0 0.0 0.0 9.07538555" Properties=species:S:1:pos:R:3:force:R:3:tags:I:1 config_type=shaiducarbon energy=-490.89230559476647 unit_cell=conventional pbc="T T T"
C		0.00000000		0.00000000		0.00000000		0.00514242		0.00514242		0.00514242		0
C		3.24279666		3.24279666		3.24279666		-0.00514242		-0.00514242		-0.00514242		0
2
Lattice="9.07538555 0.0 0.0 0.0 9.07538555 0.0 0.0 0.0 9.07538555" Properties=species:S:1:pos:R:3:force:R:3:tags:I:1 config_type=shaiducarbon energy=-494.45289608307064 unit_cell=conventional pbc="T T T"
C		0.00000000		0.00000000		0.00000000		2.43765302		2.43765302		2.43765302		0
C		1.29119188		1.29119188		1.29119188		-2.43765302		-2.43765302		-2.43765302		0
2
Lattice="9.07538555 0.0 0.0 0.0 9.07538555 0.0 0.0 0.0 9.07538555" Properties=species:S:1:pos:R:3:force:R:3:tags:I:1 config_type=shaiducarbon energy=-497.5862665570157 unit_cell=conventional pbc="T T T"
C		0.00000000		0.00000000		0.00000000		3.55572697		3.55572697		3.55572697		0
C		0.94299341		0.94299341		0.94299341		-3.55572697		-3.55572697		-3.55572697		0
2
Lattice="9.07538555 0.0 0.0 0.0 9.07538555 0.0 0.0 0.0 9.07538555" Properties=species:S:1:pos:R:3:force:R:3:tags:I:1 config_type=shaiducarbon energy=-490.89802765058846 unit_cell=conventional pbc="T T T"
C		0.00000000		0.00000000		0.00000000		0.01526389		0.01526389		0.01526389		0
C		3.03906351		3.03906351		3.03906351		-0.01526389		-0.01526389		-0.01526389		0
2