16
Lattice="4.151058595959 0.0 0.0 -0.7016741897679295 4.782123279009667 0.0 0.392831279169984 -1.2203323570986229 4.714124788149262" Properties=species:S:1:pos:R:3:force:R:3:tags:I:1 config_type=shaiducarbon energy=-4058.9083799192645 unit_cell=conventional pbc="T T T"
C		0.23255310		0.38841372		0.91494147		0.16423397		2.74514119		-1.07409357		0
C		0.41906099		-0.16093696		3.24298879		1.41057487		0.11598281		0.97043201		0
C		1.27690963		-0.07211011		4.54085836		-5.01036864		1.25943246		0.96424722		0
C		1.05090939		0.68236969		2.22078895		-0.59901531		-0.75113166		-0.62510688		0
C		0.84806376		3.05208866		0.46649098		3.57496589		0.52380457		-3.83691446		0
C		1.67852953		3.32131885		1.68427916		0.04746080		-0.94234115		-0.68291766		0
C		1.07975966		2.50972920		2.69914906		0.50407211		-1.98084342		2.35817419		0
C		1.93976934		2.61515903		4.11380824		-3.08125148		0.02494743		-2.59014366		0
C		2.96287868		1.09009954		0.97404881		2.38861813		-2.38417269		2.84646202		0
C		2.45463884		0.19888884		2.06069923		-1.72698716		0.24817978		0.97853099		0
C		3.21093888		0.35385367		3.40487883		0.47111748		1.53388893		-2.13567743		0
C		2.59571879		-0.38877196		4.44834828		2.63843030		-2.09327708		-0.06462010		0
C		3.66408836		3.44822875		0.42137686		-1.92517514		1.93686698		1.30874934		0
C		2.99757862		2.67373877		1.46223945		1.34139363		0.39404320		0.73283079		0
C		3.27043850		2.10966926		3.85875848		0.27228595		-0.81720263		0.08464335		0
C		3.83659847		2.90982898		2.76733891		-0.47035592		0.18668126		0.76540360		0
16
Lattice="4.846091309653 0.0 0.0 -1.4408253299121008 4.022784010964742 0.0 0.6931267478370492 -0.00909611338821868 4.658489422873713" Properties=species:S:1:pos:R:3:force:R:3:tags:I:1 config_type=shaiducarbon energy=-4054.3887502905254 unit_cell=conventional pbc="T T T"
C		1.58328927		0.92619660		1.23910969		1.63439780		-0.36863426		1.74495995		0
C		0.48283982		1.44898954		2.16960913		1.10223715		0.27042910		0.55486943		0
C		0.59019674		0.84076486		3.61136879		1.44768775		1.99844058		-1.37167508		0
C		1.97231943		1.46127971		4.55516833		-0.12550001		-1.78635809		-1.02996364		0
C		0.61496559		3.51454873		1.07252966		-3.63192719		3.31609983		5.58483247		0
C		0.53349602		2.97529895		2.43541918		0.08396509		-1.35928904		0.55877828		0
C		1.87730938		2.90567903		4.69911857		-0.22304311		-2.44173562		-2.58426663		0
C		4.06342866		1.09487983		1.32897948		-0.23528209		-3.67596867		-0.57962763		0
C		2.94071918		1.45958940		2.23373940		-1.22632614		1.97623266		-0.57861976		0
C		3.01407883		0.93745746		3.67253858		2.33832551		-0.50200365		-2.25408325		0
C		4.38399857		1.45535973		4.47868829		0.43720563		-2.44755017		1.76657755		0
C		2.89537915		3.57678854		1.06164970		0.15007592		-0.42282904		2.02699836		0
C		2.91987905		3.02448920		2.44953924		-0.60820649		-2.23020745		-0.74632600		0
C		1.78127924		3.47357891		3.41066889		-2.03042744		0.71752037		-2.62852538		0
C		4.10890875		3.34118902		3.28516869		2.07532819		4.02771823		-0.03136234		0
C		4.21931870		2.82348884		4.62258861		-1.18851058		2.92813523		-0.43256607		0
16
Lattice="5.888373145809 0.0 0.0 0.4282378254021053 6.730775584794727 0.0 0.4319533888571109 0.4119152550419228 2.3815525188224496" Properties=species:S:1:pos:R:3:force:R:3:tags:I:1 config_type=shaiducarbon energy=-4057.345295555585 unit_cell=conventional pbc="T T T"
C		1.01169964		2.57350936		0.22425221		2.62138439		1.70897374		3.41525064		0
C		1.80245928		4.86856816		1.26441979		-0.19534151		-1.81793846		-2.76905659		0
C		0.89335277		4.27875867		0.26402464		-0.99472998		-1.79168850		-2.13890674		0
C		1.76090916		6.29780763		0.86226157		0.81457085		2.51037950		-2.15201603		0
C		3.08341892		1.23027959		1.37921951		-2.79570018		-1.25225496		0.28524869		0
C		2.15620919		2.49444912		1.36193949		-2.60904746		1.32025092		-1.84142113		0
C		2.91862868		3.69917847		0.94183469		2.00248082		1.50631229		0.74622779		0
C		2.59588930		6.89303736		1.81514932		1.98261980		0.17499919		1.27642026		0
C		4.12326852		1.33157963		2.38661888		-0.63202855		1.20189498		1.21521999		0
C		4.95577850		2.57062936		2.00647905		1.29252901		-1.29234157		-0.23973421		0
C		3.98901833		3.88895838		1.92985954		0.92236212		-0.94689714		2.19278990		0
C		4.95815799		4.88711830		1.66733937		-1.37322391		0.45249137		0.40837197		0
C		5.77570796		0.46669597		0.94121582		-0.85124895		-0.77157734		0.76706634		0
C		5.63700792		2.07845911		0.67491179		-2.07593446		-1.71970322		0.40823416		0
C		5.40995814		4.96566802		0.32421677		-2.26062697		1.25405036		-0.87605857		0
C		5.62769781		7.00611768		2.36594892		4.15193474		-0.53695114		-0.69763724		0
16
Lattice="4.837292154497001 0.0 0.0 0.09147803193369278 4.922892876462979 0.0 -1.1341321693747486 -1.2413362381027113 4.08958223159209" Properties=species:S:1:pos:R:3:force:R:3:tags:I:1 config_type=shaiducarbon energy=-4061.954453670851 unit_cell=conventional pbc="T T T"
C		-0.32392008		0.35077285		1.74213916		0.99194805		0.86106980		-0.27218002		0
C		-0.27177504		0.36921890		3.24883860		-0.71420416		-0.81480353		-1.73217256		0
C		-0.18308570		2.77392874		1.68254953		-0.47805226		3.32832852		0.09322622		0
C		-0.30662192		2.82220878		3.21993869		1.14157351		0.21877894		-1.15769408		0
C		1.55349928		0.44203563		1.10986976		-1.51788046		-0.30538867		1.01559219		0
C		0.43296764		-0.86673246		3.72363866		-1.08143356		-0.35367942		-0.23195199		0
C		0.41185383		1.58241951		3.72724825		-0.53038608		2.00017711		1.11128615		0
C		1.40495958		2.92551883		1.16026951		1.99689072		-2.13303485		0.26848071		0
C		2.02256908		-0.87270362		3.21253860		0.76411008		1.64032292		-0.50650668		0
C		2.15025908		1.65380924		1.65252929		0.99419519		0.76049305		1.93972451		0
C		2.18818926		1.63520937		3.20328873		-1.77841852		-1.74100842		-0.51526335		0
C		2.15275899		4.16558818		1.70180920		1.14261867		-2.68980484		-0.02288901		0
C		2.75607865		0.34723873		3.78602860		1.21957004		0.48446743		-1.28406082		0
C		3.94996831		1.57377914		1.17051973		-1.71379584		1.09526508		-0.21708509		0
C		3.98376840		4.10639811		1.15985931		-1.01229526		-2.64593305		-0.60642934		0
C		2.88576887		2.84498904		3.67710875		0.57555988		0.29475021		2.11792267		0
24
Lattice="6.662973971577 0.0 0.0 -0.2897327601800543 3.969493395462884 0.0 0.41195835471466274 -0.08286740728450315 5.243587278307838" Properties=species:S:1:pos:R:3:force:R:3:tags:I:1 config_type=shaiducarbon energy=-6079.471751032258 unit_cell=conventional pbc="T T T"
C		1.35056950		0.57408184		1.04715965		-0.48162250		2.49104941		-0.60854022		0
C		0.76449164		2.01201892		1.05396988		5.89513477		-2.04303743		0.50900760		0
C		1.32316935		2.57583911		2.42048920		2.13455849		0.66376499		-2.32397720		0
C		1.28946936		2.61031867		4.91988801		3.52428170		-1.32574074		0.68116494		0
C		0.96059030		0.52533885		3.64681889		0.53639244		1.87305267		0.79537472		0
C		0.95299784		-0.14186271		5.15969777		-3.78980230		2.66984869		0.12864319		0
C		0.92038258		1.99271895		3.66194851		-2.35862721		-0.80325310		-0.67307213		0
C		2.42208898		0.53729089		0.14276688		4.98430792		1.62061771		1.10836126		0
C		1.88971936		0.01546943		2.50557871		-0.80172689		-0.83331317		-1.25258689		0
C		2.84023857		3.09408855		4.83409822		-0.55947222		0.63626033		0.59818638		0
C		3.18998874		1.79962929		0.14593779		-1.31727487		-0.98890257		1.61150237		0
C		3.72337846		2.30987917		1.44716930		-0.14866567		0.44910445		1.60586291		0
C		3.12820898		3.85762873		2.49011928		1.49709153		1.28165915		0.23966608		0
C		3.81596848		3.42701871		3.76582827		0.03182797		-1.65746370		-0.74907631		0
C		5.04369806		2.58171918		0.73503863		0.90429985		0.23869523		0.53970197		0
C		4.17109833		1.20535931		2.35568912		1.37992164		0.89187986		-0.65559530		0
C		4.70955791		2.24988909		3.51527846		0.04134131		-1.11982479		-1.33794552		0
C		4.97918781		1.71276943		4.81296793		-2.96640022		-3.45054163		-2.16306124		0
C		5.30994783		0.28959817		4.31770841		0.57664823		2.50035064		3.88726235		0
C		5.39770786		3.92557840		0.43770209		0.69130152		-0.56983558		-1.73066615		0
C		6.15706768		2.06836902		1.54182950		-5.04032382		-1.59204836		4.12619052		0
C		5.69051758		0.69987279		1.86161894		-2.99774045		1.50876821		-0.80077970		0
C		6.30532752		0.13208680		3.15705899		-0.93058451		-1.26257846		0.38866317		0
C		6.09819764		2.64301921		3.08599904		-0.80486621		-1.17851155		-3.92428678		0
16
Lattice="4.197148854305 0.0 0.0 0.3999589057732864 5.480019993069886 0.0 -0.2196871653320323 -1.2383435865695644 4.269192914389146" Properties=species:S:1:pos:R:3:force:R:3:tags:I:1 config_type=shaiducarbon energy=-4051.1312400453426 unit_cell=conventional pbc="T T T"
C		1.41199936		-0.48914496		4.17800860		-1.83495866		2.18621096		-1.00102945		0
C		0.40346101		0.78626155		2.02799937		3.14669485		-0.29076602		-2.98636459		0
C		1.87841928		0.72861161		1.39514949		-6.93397258		0.37207877		-1.69666560		0
C		0.83899788		0.72497856		3.48289863		-8.91682969		-2.22870619		1.81175238		0
C		1.39675951		1.88624948		3.98687841		1.39386269		6.02305214		1.61144272		0
C		0.25198590		3.37463863		1.80643944		5.44378009		-1.79058139		-0.38400535		0
C		1.70138942		3.13335881		1.38120950		-1.28099349		2.00560779		-4.39198443		0
C		0.53719980		3.25802882		3.20623894		-0.16174051		-0.69526951		5.15424537		0
C		2.32732911		-0.49944980		1.84555938		-4.10189924		-3.49965642		6.32254578		0
C		2.22070936		-1.00792977		3.29562898		4.54177882		-0.95196942		-1.20627589		0
C		3.50144877		0.83551173		4.10975834		2.90776899		-0.63546561		-1.16188473		0
C		2.53563907		1.93023938		1.89012933		-0.00740144		3.34802267		1.71775252		0
C		3.87289854		2.06492924		1.32253965		-0.92067007		-3.04227559		0.21177216		0
C		2.75588907		2.01974945		3.48107874		-0.34453272		-3.10208258		-0.71158832		0
C		3.71355882		4.47694842		1.23290954		7.89618477		-0.63926570		-5.40800471		0
C		3.45914864		3.26132904		3.85011851		-0.82707233		2.94106583		2.11829162		0
24
Lattice="3.4830271386900002 0.0 0.0 -0.4425290470519806 5.61291216610749 0.0 1.1384970808236003 -0.29395704142401996 7.270979371263755" Properties=species:S:1:pos:R:3:force:R:3:tags:I:1 config_type=shaiducarbon energy=-6090.215607382943 unit_cell=conventional pbc="T T T"
C		0.37866496		0.32838781		0.05698232		1.90029224		-0.72278574		0.35687454		0
C		1.21452947		1.68109942		0.15689505		0.81967089		0.23951696		1.25629931		0
C		3.11105900		0.25997698		1.32505951		-1.15199420		0.98132527		2.06207261		0
C		2.27510915		1.57649959		1.48874959		0.21634050		-3.12425219		-1.69947556		0
C		0.70211976		2.58929909		2.77471909		0.92471982		-0.16410233		-1.56579223		0
C		1.48452956		1.27697945		2.68840898		0.42248297		1.49812666		0.59432818		0
C		0.74599162		0.06355898		2.38209938		-0.41873738		0.79129052		-0.32525766		0
C		3.05119900		2.76638908		1.63785938		0.87616578		2.04741473		1.88114034		0
C		2.24968932		0.77902360		4.07469871		0.90358096		-1.87191007		-2.22833389		0
C		2.56023915		1.87116925		4.86189837		0.12027373		2.76827831		1.98422031		0
C		1.32669967		-0.20212390		4.78093854		1.90854986		0.95496399		-0.19792496		0
C		3.23483882		1.55713953		6.25938813		-1.34413443		-0.89022922		-1.98426016		0
C		4.19436856		0.00723425		6.09092804		-1.38486974		1.15015843		2.15454934		0
C		0.97394460		4.58328859		0.24433296		-1.72224475		-0.74445938		0.68304211		0
C		0.28001692		3.09269892		0.32696186		-1.12875938		1.22538023		-0.11523179		0
C		1.93344926		3.69027875		2.38096914		0.75422418		-1.86093916		2.58095453		0
C		1.50946943		4.87728848		1.62630931		-0.14408448		-0.18783080		-0.86075047		0
C		2.68822925		4.01762861		3.80051865		-0.97885598		1.29328029		-0.11867373		0
C		3.58831870		2.84359908		4.08929852		-0.09908294		-0.14904439		0.94293970		0
C		3.23215897		5.38324832		3.77017869		-0.32312621		-1.78802262		-2.52527571		0
C		1.92203921		4.16907865		5.07201825		-1.09147964		-0.19220271		-1.56514586		0
C		1.21617973		2.92350913		5.15628835		0.80954434		-0.49319633		-0.99121863		0
C		2.94953919		4.26046875		6.29350786		-0.77493058		0.68498715		-0.19117427		0
C		3.94757867		2.88700910		6.41628805		0.90645443		-1.44574682		-0.12790605		0
16
Lattice="4.538134108618 0.0 0.0 0.5753355660223729 5.087389017918146 0.0 -0.33522742846950304 -0.8499017558619791 4.09147733524549" Properties=species:S:1:pos:R:3:force:R:3:tags:I:1 config_type=shaiducarbon energy=-4059.7341274222917 unit_cell=conventional pbc="T T T"
C		0.38368290		0.72098970		1.76865926		-1.54603586		0.92630053		2.21941318		0
C		0.47707770		0.89625063		3.33751854		1.54394093		-0.85757258		-1.26649631		0
C		0.61294081		3.23431865		1.79120925		0.02089949		1.92328178		1.68170717		0
C		0.83694175		3.43297865		3.33213858		-0.51835562		-1.11018752		-0.35215244		0
C		1.76360922		0.58865091		1.28201926		-0.06476357		0.89680636		-0.62920702		0
C		1.20115969		-0.37368267		3.87800850		1.14832626		0.40689230		-1.42866774		0
C		1.46304951		2.15564910		3.86837858		1.26634256		1.17364162		-0.54619786		0
C		1.94671930		3.11028872		1.24886955		0.90807500		-0.93943862		-0.68307605		0
C		2.56676911		-0.45472104		1.88280922		-0.35023466		-0.97552306		-2.16428740		0
C		2.56233898		-0.54250988		3.25910866		0.27642568		-0.54811899		2.48245961		0
C		2.72370867		1.99280905		1.79490919		1.01579556		0.14389087		0.50128863		0
C		2.82424877		2.02654917		3.29942862		-0.83428120		0.16315231		-1.49594559		0
C		3.72608856		1.18804947		3.90756854		0.80737484		-1.99323024		0.41744566		0
C		4.19435820		1.99199899		1.26503937		-1.03057273		-0.86098547		1.25493559		0
C		4.51730816		4.51724825		1.29348939		-0.43192972		-0.07276459		0.21516679		0
C		4.06839820		3.61465831		3.90965835		-2.21100721		1.72385504		-0.20638621		0
16
Lattice="5.958302298827999 0.0 0.0 0.11914817106966352 7.053730218165228 0.0 -0.20655050749117146 -0.19159516872111315 2.6263839035095895" Properties=species:S:1:pos:R:3:force:R:3:tags:I:1 config_type=shaiducarbon energy=-4054.528754692365 unit_cell=conventional pbc="T T T"
C		0.04621855		0.58675574		0.32042558		1.93721511		0.12950502		0.86411141		0
C		0.81581492		1.84050945		0.40367677		-2.24518414		-1.98598332		-3.03731850		0
C		1.33608971		1.86245924		1.69554932		2.42655581		-2.63400492		2.87866948		0
C		1.21598940		4.60049815		0.21739581		-0.09080681		-0.51193686		-0.38421001		0
C		2.13532923		0.63733576		1.58592907		0.73643856		1.11100616		0.07103295		0
C		2.65053886		0.14772776		0.22915690		-1.48060252		1.42528802		0.13165472		0
C		2.90065886		3.70303840		1.68788933		1.17827630		-1.55879600		-1.15454988		0
C		1.67455941		4.30755822		1.53000921		1.72915511		0.56728555		1.81008862		0
C		4.40555799		2.26976879		0.37399072		-1.95835731		0.56774861		0.83714258		0
C		3.52305835		3.33992874		0.37329479		-0.01246369		0.94673439		0.66902521		0
C		3.73768832		6.30103755		0.16896494		-0.78837334		0.45351595		-0.03367094		0
C		4.33590842		6.04237752		1.50877918		-0.64584696		0.60364329		-0.40013569		0
C		5.22535783		0.21176998		1.60716922		-0.75103524		1.94620112		-0.67570289		0
C		4.50941835		1.58446928		1.70541925		-0.30759288		-0.43716167		-1.74192965		0
C		5.17403778		4.91446791		1.44358940		-0.07210356		0.18620972		0.85187887		0
C		5.84934759		4.85405788		0.16857884		0.34472555		-0.80925457		-0.68608655		0
16
Lattice="4.213192971768 0.0 0.0 -0.7121770739828038 4.853703633301031 0.0 0.3987113036902929 -1.2385986830333284 4.784687319230499" Properties=species:S:1:pos:R:3:force:R:3:tags:I:1 config_type=shaiducarbon energy=-4059.1196044360854 unit_cell=conventional pbc="T T T"
C		0.20469882		0.46355192		0.83547448		0.78640876		-0.32725515		0.35798860		0
C		0.38565673		-0.06842689		3.23914868		0.41245437		1.53151992		0.10661936		0
C		1.18522933		0.08496241		4.56126802		1.02780057		-0.40482256		0.42960956		0
C		1.00716968		0.59074274		2.10731905		-0.36914591		-2.49605818		2.29491703		0
C		0.85694870		2.93147858		0.35210581		-0.42094699		3.07062639		-2.29057340		0
C		1.70120938		3.12951845		1.57843946		-1.93389787		-0.22494188		3.17262136		0
C		1.10917951		2.62656896		2.84893876		-1.20873026		-1.23146063		-3.99026468		0
C		1.87105920		2.59960874		4.05252833		0.73063146		-1.16754090		1.82437008		0
C		3.04560850		0.95952647		0.97549447		-1.15255213		0.10109817		1.81899338		0
C		2.39511889		0.17563200		2.12059903		0.61133527		1.14771588		-2.90812818		0
C		3.19196850		0.17196611		3.34766831		1.22807989		0.63237719		0.19205281		0
C		2.63323887		-0.37987665		4.51138802		-1.64008792		-0.84501067		-0.51282363		0
C		3.71044824		3.63375844		0.42684701		-1.25125326		-3.20615886		1.88046774		0
C		3.04951876		2.66121868		1.46504938		2.75462086		0.93011400		1.26651637		0
C		3.89854835		2.72397882		2.85759855		-0.68655758		0.99460451		-1.45590011		0
C		3.25753843		2.20191913		4.00195822		1.11184074		1.49519329		-2.18646601		0
16
Lattice="4.769094468622 0.0 0.0 0.09018834549611064 4.853488364338735 0.0 -1.1181428127352397 -1.2238354843488404 4.03192599841816" Properties=species:S:1:pos:R:3:force:R:3:tags:I:1 config_type=shaiducarbon energy=-4062.00237606875 unit_cell=conventional pbc="T T T"
C		-0.21655981		0.40180479		1.70869930		0.19521527		0.87932876		-2.51717801		0
C		-0.30846694		0.45088068		3.15159885		0.51356848		-2.36919369		1.78987279		0
C		-0.15092276		2.78492893		1.81053902		-0.44869281		1.74662012		-6.84325962		0
C		-0.27738198		2.86253879		3.20579866		0.17721265		-1.32376691		1.68721627		0
C		1.46049941		0.42792465		1.15072956		1.00967453		-0.51926142		0.92262514		0
C		0.42519482		-0.84863175		3.65920839		-0.30036756		3.32092322		1.68122174		0
C		0.39787887		1.61908945		3.70356860		0.81389490		0.07498011		0.89653382		0
C		1.49406955		2.80171900		1.17179942		0.52316128		1.63992799		1.09549905		0
C		2.06605900		-0.80277070		3.17964876		0.01536518		0.58986757		-0.10424572		0
C		2.21360906		1.65502935		1.74251934		-0.26078797		-1.80321425		-3.06840470		0
C		2.13819918		1.64620938		3.19204840		-1.15922852		0.66663331		0.71900724		0
C		2.29362922		4.04706835		1.65984947		-1.54939732		0.15080637		0.15144221		0
C		2.74009896		0.45293998		3.73187842		1.46954266		-1.68270990		-0.31524114		0
C		3.81597854		1.64190909		1.19007936		0.85903451		-0.51933856		1.09563455		0
C		4.01800835		4.04350822		1.12367973		-2.14387283		-0.40937933		3.28195247		0
C		2.89061874		2.85763854		3.70326862		0.28567704		-0.44222314		-0.47267634		0
16
Lattice="4.756191545830999 0.0 0.0 1.883894177962838 4.635389036758439 0.0 -2.04656544121335 -1.255577493800834 3.8865124092927097" Properties=species:S:1:pos:R:3:force:R:3:tags:I:1 config_type=shaiducarbon energy=-4058.820763713601 unit_cell=conventional pbc="T T T"
C		1.33531933		0.21728090		0.87201348		-0.99914020		-1.18062191		3.05606160		0
C		2.43811939		0.93763655		0.44421878		0.85957059		1.63801561		-1.76124610		0
C		0.33496002		-0.41817673		2.86510886		0.26558051		0.80280058		-1.08158757		0
C		1.44890955		0.34168908		2.37629936		-0.78269968		-0.45280890		-0.61007003		0
C		2.23036941		2.52466923		0.88662354		0.81360977		0.82120841		-0.41286781		0
C		1.25512946		1.92735911		2.80483888		-0.00572457		0.06488981		1.60068573		0
C		3.34739905		3.27288903		0.39813699		0.50228596		-0.07634434		-1.06112389		0
C		2.43186927		2.65258890		2.34575938		-4.62156561		0.13913973		-0.72530362		0
C		4.85690818		0.97821543		0.46119505		-2.11323991		-0.60518107		-1.30180401		0
C		3.68169891		0.25420607		0.92787685		1.58910573		-1.13159120		-1.71117795		0
C		2.68429891		-0.43380890		2.89107909		1.13850130		2.12209917		-1.59113330		0
C		3.82643886		0.33322211		2.33171910		-1.56646098		-1.29890252		2.59316317		0
C		4.63297860		2.54934911		0.89323085		-0.93788413		0.17196245		0.34058916		0
C		3.60695869		1.90769939		2.77333910		0.95352725		-0.87550784		2.80802554		0
C		5.70463797		3.26466890		0.36241181		1.98091850		0.58453330		1.00420014		0
C		4.69268830		2.69844905		2.36712895		2.92361549		-0.72369128		-1.14641156		0
16
Lattice="4.432601397861999 0.0 0.0 0.17546895893576514 4.870546848572163 0.0 -1.4437691969060191 -1.2541824025180635 4.0852671849269315" Properties=species:S:1:pos:R:3:force:R:3:tags:I:1 config_type=shaiducarbon energy=-4061.586951793077 unit_cell=conventional pbc="T T T"
C		0.32869202		-0.01038691		1.53413930		-3.29248577		0.14646249		2.06534665		0
C		-0.00789845		-0.01190198		3.12856863		1.92514763		0.61291958		-1.62232852		0
C		0.37453000		2.40244912		1.57508945		-0.24781417		0.75271597		0.50905876		0
C		0.12124406		2.43586917		3.10574871		0.65151110		-0.27581145		0.24080842		0
C		1.77317930		0.00482755		1.11853948		2.96883094		-0.77879983		-1.79860375		0
C		1.90884926		2.43296891		1.05023974		0.47781187		0.46705076		0.43117742		0
C		0.72680878		1.19933960		3.61959847		-0.06781624		0.37129432		0.30046577		0
C		0.82035661		3.65665857		3.62983867		-0.18828846		-1.44383495		0.67217045		0
C		2.53933894		1.21456957		1.53738928		0.30853287		0.05248243		1.80112883		0
C		2.34652920		1.22721933		3.08528871		-1.33258451		-0.02056087		-0.42031733		0
C		2.61432880		3.62436839		1.63789941		-0.09796836		0.43704057		-1.67297209		0
C		2.41816890		3.63050843		3.13310894		-1.82606109		1.02237631		-0.47132754		0
C		4.10461859		1.25412965		1.00790973		0.03662359		-2.55001385		1.15841682		0
C		2.92120888		-0.01533458		3.60234856		0.12363699		0.59634907		0.27265773		0
C		3.00611890		2.44258899		3.67972848		-0.16861590		-2.24031241		-1.61274678		0
C		4.17068829		3.60026878		1.07358980		0.72953951		2.85064187		0.14706541		0
16
Lattice="4.898087712496 0.0 0.0 0.052301780594032295 4.898092610583712 0.0 -1.0401089257485256 -1.5002891644252372 3.9201159274681987" Properties=species:S:1:pos:R:3:force:R:3:tags:I:1 config_type=shaiducarbon energy=-4060.429659823238 unit_cell=conventional pbc="T T T"
C		0.51552863		1.70265954		1.27090976		-0.63492413		-1.93095498		0.54734149		0
C		0.42088288		4.13441853		1.30663935		1.65946402		-0.47109203		0.21837527		0
C		0.41765798		-0.94021879		2.75743872		0.61609670		2.51283773		0.56819778		0
C		0.45030765		1.55289952		2.75404876		1.48606458		0.04950740		-0.15910641		0
C		2.18590928		1.68260921		0.78998367		0.37282747		-0.37787969		0.45209362		0
C		1.24481960		0.27506975		3.24314878		-2.14734742		-0.17271065		-0.62738745		0
C		2.28592921		4.11559861		0.79564880		-0.99260188		0.64152339		-1.01026126		0
C		1.22158944		2.75542904		3.25696873		-0.96360881		-1.13379618		-0.27783979		0
C		2.91447876		0.39480203		1.30611966		0.19570044		1.67853159		-0.81471303		0
C		2.85224905		0.28047185		2.75213899		0.52077683		2.74768505		0.92283443		0
C		2.93866895		2.87106897		1.27293953		0.43571285		-0.23074023		1.05406286		0
C		2.98215907		2.82789870		2.75017878		-2.13433943		-2.64586928		-1.26330660		0
C		4.58512832		0.47715064		0.79733080		0.92574106		0.75196778		-0.01993121		0
C		3.61288876		-0.92061665		3.21661877		1.00431121		0.45328172		2.50551677		0
C		4.70708825		2.93255907		0.81495559		-1.81509739		-0.15559326		-2.05994553		0
C		3.59252888		1.55547935		3.25667876		1.47122416		-1.71669837		-0.03593119		0
24
Lattice="3.1606683856 0.0 0.0 -0.4594695238830576 5.982965095842822 0.0 0.6605733712536288 -0.05403478672021761 7.261000321570496" Properties=species:S:1:pos:R:3:force:R:3:tags:I:1 config_type=shaiducarbon energy=-6085.963237610622 unit_cell=conventional pbc="T T T"
C		1.87581939		1.70921930		1.27477942		0.56530940		-0.67532133		0.10126529		0
C		2.63933889		0.33355197		1.23145962		0.28134755		-0.21468137		0.64439634		0
C		0.48183283		2.88780883		2.73121889		-0.72537741		-0.96446628		-2.09727875		0
C		1.14620944		1.49075959		2.54850918		0.26687814		0.20170937		1.75778128		0
C		0.49035589		0.19918501		2.29759921		-0.77803930		-1.11852638		0.27743484		0
C		2.60263911		3.05089900		1.46867947		-2.32557386		-0.39244989		4.98104930		0
C		1.83184944		0.96648561		3.91341854		-0.02172275		-1.65730481		0.03180663		0
C		2.05071940		2.13490918		4.70941834		1.65457147		0.11358525		2.09143540		0
C		1.67548928		1.51199959		7.19592722		1.47185716		-1.46100659		-0.13339665		0
C		0.65604477		2.46549897		6.57025774		-1.27893043		2.94710227		-1.54263455		0
C		0.97808653		0.08895385		7.24952741		-1.96899269		2.75489880		0.21488551		0
C		2.69714910		1.54030938		6.12355763		-0.90447854		0.58637421		-1.46602641		0
C		3.30569882		0.16141091		5.98916791		1.97268042		-0.96781977		0.67860258		0
C		0.60524176		4.84005824		0.20965377		0.81893890		1.64325115		-1.48437305		0
C		1.15422963		5.23410794		1.63483929		-1.52124578		0.07472069		-2.17623790		0
C		3.00014878		3.61796874		0.27163479		-1.00109141		0.28967922		-2.36098749		0
C		1.52429934		4.00260849		2.41520926		0.19065670		-1.41382424		0.56120155		0
C		2.12128922		4.37655855		3.79302868		0.89248973		-0.16301732		-3.14893711		0
C		2.98095879		3.11894883		4.07206861		-0.61595272		0.22576206		-0.32527000		0
C		2.62109899		5.72122793		3.61741879		1.59658507		2.83378544		-0.05314320		0
C		0.79899484		3.20911890		5.15036824		3.01367590		-3.06075746		0.78786555		0
C		1.32766941		4.54964844		4.99946813		-0.97925090		0.05321493		-0.27187431		0
C		0.48148390		5.92764771		4.71793823		-0.77528822		-0.40800276		-1.84382614		0
C		2.11845916		4.86094836		6.11552764		0.17095407		0.77309532		4.77626104		0
16
Lattice="4.85570169315 0.0 0.0 -1.3189542509103345 4.119941494095446 0.0 -0.5035071313694961 0.0865480269787056 4.813525068243299" Properties=species:S:1:pos:R:3:force:R:3:tags:I:1 config_type=shaiducarbon energy=-4055.470563697945 unit_cell=conventional pbc="T T T"
C		1.08035964		0.91365757		1.31627973		1.78794163		1.26222982		-0.96015402		0
C		-0.06973565		1.49793930		2.21837927		-0.71163202		-1.14984270		0.34076065		0
C		0.05455090		0.89311650		3.58689859		0.09672318		-0.98549432		-2.33519211		0
C		0.70660997		1.54269916		4.71784832		-1.27356968		1.28760663		1.55077518		0
C		-0.31824997		3.56768846		1.04769970		-0.00259990		1.54225968		3.31634743		0
C		-0.16951789		2.98718884		2.45606927		0.64997255		0.35789629		-0.81823930		0
C		-1.35963969		3.52933861		3.33900870		-0.14937041		-0.43523256		0.27967299		0
C		3.54892846		0.95864370		1.33415940		-0.20392463		-0.21304691		-0.16860999		0
C		2.36942899		1.47105959		2.23945933		-0.59601251		-1.22613587		0.52859299		0
C		2.55124879		0.83538560		3.63581881		-0.00051705		0.65710814		-2.81366577		0
C		3.10347901		1.60173915		4.78166827		-0.67354136		1.21068662		-0.66457283		0
C		1.48195919		2.85782906		-0.04533769		1.43924604		-0.84320036		-0.84323018		0
C		2.04770913		3.56961860		1.12994946		0.47334740		0.86787448		0.55925522		0
C		2.28693935		2.94439894		2.45081929		-0.63915591		1.30056757		0.30974412		0
C		1.06547982		3.48180858		3.36333868		-0.08729828		0.21649220		1.33015662		0
C		3.45088844		3.02530901		4.71459840		-0.10960930		-3.84976870		0.38835900		0
16
Lattice="4.350524457631001 0.0 0.0 -0.0659583013021436 4.046509808531746 0.0 0.46928237219574076 -0.4546254552979819 5.253923912831451" Properties=species:S:1:pos:R:3:force:R:3:tags:I:1 config_type=shaiducarbon energy=-4057.8700541324597 unit_cell=conventional pbc="T T T"
C		1.59897958		1.82010934		1.80516920		2.25873772		-0.96706155		-0.61513588		0
C		1.59153931		0.33203594		1.78207923		-0.15205644		-1.30107459		0.65471316		0
C		0.07213779		3.88721884		1.81800934		2.00987197		-3.51745361		0.05899941		0
C		0.22367699		2.26768912		1.85558917		-2.84246652		2.41528486		-1.42129432		0
C		1.79422938		3.54123859		4.48269861		1.15776993		2.42582330		-0.30621888		0
C		1.92683945		2.07925921		4.40759855		-2.85001529		-2.79165531		1.46796065		0
C		3.67343885		1.93370936		0.46599294		1.27266748		-1.13500254		1.37085696		0
C		3.67870864		0.41780001		0.53156883		-1.11061278		0.21566636		-0.68799071		0
C		3.94369865		0.13522909		3.16176888		-1.85610009		0.55551195		-0.23527258		0
C		3.89702883		1.60460959		3.08062899		1.26247150		2.30944480		1.52470109		0
C		2.14508917		3.91400850		0.49376190		2.61611337		2.43522172		3.17767821		0
C		2.27598905		2.45786925		0.52236704		-0.67240622		-2.50428443		0.72760322		0
C		2.39323917		3.66653892		3.11060889		2.46800820		1.36940505		-1.28899837		0
C		2.50488929		2.13990943		3.08531886		-0.22009329		1.41155884		-2.86092731		0
C		4.73939826		2.03043936		4.45217838		-1.79787998		0.88075778		-1.04349254		0
C		4.67775829		3.59981884		4.47990862		-1.54400983		-1.80214262		-0.52318184		0
16
Lattice="4.459966728063001 0.0 0.0 1.8759467451911311 3.808209490257514 0.0 0.1329917478641106 -0.11143672866738213 6.029384420001089" Properties=species:S:1:pos:R:3:force:R:3:tags:I:1 config_type=shaiducarbon energy=-4058.1270208701208 unit_cell=conventional pbc="T T T"
C		1.72567932		0.63563267		1.73649920		-1.77589086		1.18313440		-1.52698680		0
C		1.97432915		0.71753773		3.16444853		0.51107245		0.67446361		-0.11775327		0
C		2.98518864		3.19746878		1.27636933		-1.54717332		-1.28455935		-1.20843150		0
C		2.03794924		1.95584928		3.74279828		1.41554816		-3.17500221		-0.51670343		0
C		2.40861886		1.91985913		5.13577790		-0.98126639		-0.19835845		1.89511918		0
C		3.03653891		3.20347859		5.53605769		-0.45351055		0.22005472		1.15734647		0
C		3.12114894		0.71014757		1.13623941		1.58356834		-0.29168442		1.78717776		0
C		4.72171816		0.64218793		5.21115803		1.28022678		-1.86784130		1.17610680		0
C		3.25286871		0.60742561		5.68387749		1.15223126		1.01434315		-1.92034738		0
C		5.16811802		1.91913929		1.18847945		4.26906195		0.27672522		-0.54757855		0
C		3.81793846		1.98873930		1.53390922		-3.93659877		-1.02828342		0.56192120		0
C		5.88450775		3.11978865		1.66151913		1.42408372		2.51431277		0.80145795		0
C		5.79383752		2.97368861		3.15425884		-2.17129187		3.02324478		-1.86029433		0
C		4.65798791		3.49909856		3.72752869		1.36579291		-2.09852471		-1.86540903		0
C		4.55035821		3.16586858		5.09378776		-2.06927067		0.32823063		3.38412330		0
C		5.36631760		1.86178903		5.66863778		-0.06658288		0.70974432		-1.19974862		0
16
Lattice="4.458270186601 0.0 0.0 0.17648508360678722 4.898751739307365 0.0 -1.4521299320989314 -1.2614452579478201 4.1089245930491325" Properties=species:S:1:pos:R:3:force:R:3:tags:I:1 config_type=shaiducarbon energy=-4061.2857631352767 unit_cell=conventional pbc="T T T"
C		0.28910010		-0.01259461		1.59793944		-1.01989133		0.26247358		-0.55242354		0
C		0.08468395		-0.07080268		3.08694908		-1.36614309		-0.35188531		1.58353980		0
C		0.31718408		2.50207931		1.56497945		0.87314139		-4.28872422		0.34688862		0