16
Lattice="4.389767165597 0.0 0.0 -0.9754852800046341 6.727326960811733 0.0 -0.2002611780945351 -0.13304067348774828 5.042371901270478" Properties=species:S:1:pos:R:3:force:R:3:tags:I:1 config_type=shaiducarbon energy=-327.8446327117249 unit_cell=conventional pbc="T T T"
C		0.91984366		0.52648673		2.96039884		1.05030881		-2.75287513		1.84020509		0
C		-0.13430010		1.29729955		3.36298877		-0.16404716		7.11371960		-3.81588423		0
C		0.12121288		3.21919844		1.12289937		1.02033137		0.34978635		5.47147015		0
C		0.84735544		3.53745831		2.46860883		-0.14174963		-2.95498481		3.51441264		0
C		0.02362704		2.82940862		3.67240854		0.25638922		1.17663576		-4.54961948		0
C		0.74717876		2.94796877		5.03919766		-0.76516291		1.13096782		-4.48456739		0
C		1.01207970		5.02893790		2.69798865		0.69073872		-6.23672547		4.51287942		0
C		-0.11431788		5.73689760		3.06145874		-0.12575926		2.64448713		-1.13596829		0
C		3.10349866		0.56711358		3.09577882		0.44573458		-1.60332863		-1.68203712		0
C		2.03240908		1.32370927		2.66202900		-0.00211555		6.92475641		5.25543148		0
C		3.07141868		3.06797886		1.15951968		-1.45324521		1.02032790		5.43326644		0
C		2.21981922		2.88169865		2.43684887		-0.14320272		1.52217758		4.04884425		0
C		3.04209855		3.48522842		3.65127839		-0.41272808		-2.30067526		-4.94191640		0
C		2.17475913		3.16723852		4.99438780		1.12981801		-1.05409529		-4.44273101		0
C		3.13572877		5.05197803		3.41458873		-0.52699273		-7.14635200		-5.49877070		0
C		2.10349917		5.84267738		3.01334865		-0.85831746		2.16617804		0.47498513		0
16
Lattice="5.2508587969530005 0.0 0.0 0.18495625026387247 4.673537373945612 0.0 -0.18483022965274562 -0.1423980397145684 5.866443228013785" Properties=species:S:1:pos:R:3:force:R:3:tags:I:1 config_type=shaiducarbon energy=-290.2612124557681 unit_cell=conventional pbc="T T T"
C		0.16789516		1.48962926		2.27167904		6.82803800		-6.95945673		0.79889556		0
C		0.11336919		0.02511066		2.33102897		4.98814158		5.24967620		0.11962815		0
C		1.66046963		0.03442673		2.29868893		-5.97187767		5.38289678		0.64528912		0
C		1.71191912		1.48437945		2.32592934		-5.37098138		-4.75703274		0.05743658		0
C		0.54047562		0.48930285		5.21563814		-5.45983185		-5.40201147		-0.10833505		0
C		1.64389949		1.35974927		5.24254826		5.52059118		5.00910312		-0.62104312		0
C		0.68322179		3.69568884		5.20645806		-6.79414503		6.77613966		-0.35010790		0
C		1.69441958		2.80066893		5.12848806		7.21042931		-6.34497236		0.95055556		0
C		4.22873870		0.45858008		5.27315814		6.54241471		-4.95058176		-0.71828127		0
C		3.19244864		1.36944970		5.27783823		-6.20320118		5.45529963		-0.67092649		0
C		2.90260911		3.80748855		2.36961911		5.42764025		-5.69433900		-0.23015281		0
C		2.81690879		2.36291901		2.28535910		5.44543889		4.85185962		0.94286481		0
C		4.38828815		2.36251890		2.35145901		-7.36873179		6.80301555		-0.24886729		0
C		4.41614815		3.83675842		2.34087906		-4.59734411		-5.21827408		0.55164954		0
C		4.37733853		3.70196887		5.19804828		4.73004352		3.88707754		-0.17919446		0
C		3.24649888		2.80119875		5.25098797		-4.92662442		-4.08839996		-0.93941091		0
16
Lattice="6.700692120606 0.0 0.0 -0.03264577201159243 2.7679219011799265 0.0 -0.14896308653319199 0.15073876994515256 6.762968353174912" Properties=species:S:1:pos:R:3:force:R:3:tags:I:1 config_type=shaiducarbon energy=-330.947784584174 unit_cell=conventional pbc="T T T"
C		0.45227662		1.62723829		3.68467575		-1.20805881		-0.17746310		2.18978644		0
C		1.11210181		1.49298992		4.93565611		-1.72605029		0.34946718		-0.66311614		0
C		6.15041922		1.71040862		1.25737818		4.38160433		-0.81292148		0.20160629		0
C		6.04086894		1.91607832		6.65930731		1.84504237		-1.46610703		-7.65668174		0
C		3.19133127		1.72849915		3.77728133		0.33892908		0.00843184		4.37499811		0
C		3.01792807		0.31719870		1.71498117		0.07960323		0.12005871		1.90560215		0
C		2.83798769		1.86250964		6.42405740		-2.64200349		-0.98037532		-2.17469131		0
C		4.93750952		0.28582874		4.79144917		-0.37037734		0.33726983		0.61330831		0
C		3.00668163		1.71198998		2.37942917		0.47032694		-0.13731912		-0.55275049		0
C		2.48511785		1.75201925		5.01953068		1.61856784		-0.71114445		0.23066721		0
C		4.49270686		1.69058864		4.32861897		-2.07573465		-0.19551198		6.99938317		0
C		3.01582674		0.31514561		0.31198959		-0.98458044		0.50307066		-3.52999850		0
C		6.32691411		0.29279612		1.84349777		1.88102313		0.73314856		-3.71965837		0
C		0.25135167		1.12316063		5.96057722		-8.16871847		0.18809217		-3.75728172		0
C		0.23117656		0.26779249		3.08724874		-0.34223008		-0.25524690		4.79425429		0
C		5.76934818		0.30023523		5.88795646		6.90265665		2.49655042		0.74457230		0
16
Lattice="4.926283850587001 0.0 0.0 -2.0817884398518594 4.447907204708049 0.0 0.1456948448811105 1.5172412368584396 5.440321865260352" Properties=species:S:1:pos:R:3:force:R:3:tags:I:1 config_type=shaiducarbon energy=-332.2332496032297 unit_cell=conventional pbc="T T T"
C		0.09806655		1.72386929		3.82050850		-2.69941656		2.13526298		0.70564857		0
C		0.18480708		3.27197862		3.88496843		0.43752262		-1.81629393		-0.67125404		0
C		-1.01635936		4.01065862		3.86710868		-1.65215537		0.78188727		0.30078520		0
C		-0.82889061		5.46052800		3.94286853		3.15557361		-1.41501628		-0.23577670		0
C		1.25303971		2.61610895		1.06339946		2.56860576		-1.88421893		0.57017950		0
C		1.06196935		1.06327975		1.16221972		-1.93769213		1.69855518		-0.54807441		0
C		0.08013044		3.29578883		1.20422959		-3.38365538		1.23538172		-0.21743270		0
C		0.14038776		4.74763808		1.06847944		2.66653962		-0.99616758		0.30343100		0
C		2.58295900		1.73406916		3.90011823		-2.45984879		0.41007444		0.70380979		0
C		2.68048908		3.17502886		3.95491822		0.79449617		0.30557348		-0.95455751		0
C		1.46285950		3.94749825		3.80102850		0.39760605		1.43775543		1.27447777		0
C		1.66503911		5.44812805		3.88701826		2.04875137		-1.88300543		-0.41903314		0
C		3.67001841		2.56753875		1.24504928		2.58863945		-0.20614431		-0.58749460		0
C		3.54584847		1.11640972		1.20548974		-2.05120162		-0.14772527		-0.28591365		0
C		2.52847923		3.33611883		1.16799973		-1.98140251		1.22748623		-0.18752265		0
C		2.62357917		4.77789827		1.13686956		1.50763771		-0.88340502		0.24872755		0
16
Lattice="4.615329391024 0.0 0.0 0.6231340823997144 4.769084474356574 0.0 -2.0968779868945426 2.300774008731201 4.178917689796944" Properties=species:S:1:pos:R:3:force:R:3:tags:I:1 config_type=shaiducarbon energy=-435.68380825046074 unit_cell=conventional pbc="T T T"
C		1.54455783		3.47142046		1.99636950		-0.16699560		0.08889638		-0.23454899		0
C		0.49606945		4.62183054		4.08554081		-0.16811103		0.08561567		-0.23017647		0
C		3.72325683		2.30111047		0.95136846		0.16340463		-0.09014297		0.23635964		0
C		4.16299896		5.85650823		1.99710103		-0.16636890		0.08576911		-0.23603450		0
C		0.80653066		7.00700508		4.08644726		-0.16330572		0.09121587		-0.23152208		0
C		1.41585752		2.30084832		0.95182815		0.16594933		-0.08936904		0.23385750		0
C		3.11417874		7.00656616		4.08669833		-0.16361594		0.09379169		-0.23225522		0
C		1.85548888		5.85624931		1.99715133		-0.16462080		0.08775420		-0.23593176		0
C		4.03377527		4.68636623		0.95224999		0.16808608		-0.08645210		0.23440965		0
C		2.80380014		4.62132886		4.08618834		-0.16723560		0.08679910		-0.23282399		0
C		0.67814512		5.83685801		3.04175960		0.16755514		-0.09174332		0.22866376		0
C		2.67495122		3.45158655		3.04092792		0.16457710		-0.08763527		0.23458426		0
C		0.36716699		3.45202685		3.04036808		0.16375276		-0.08898513		0.23667469		0
C		2.98574889		5.83635770		3.04209791		0.16673236		-0.08931070		0.22719725		0
C		3.85202960		3.47170615		1.99591858		-0.16906229		0.08818137		-0.23261761		0
C		1.72619642		4.68606624		0.95234645		0.16925849		-0.08438486		0.23416387		0
24
Lattice="4.406951130318 0.0 0.0 -2.0712009269825056 3.842856978686166 0.0 0.4568818445334581 -1.433616458301488 10.125944158105407" Properties=species:S:1:pos:R:3:force:R:3:tags:I:1 config_type=shaiducarbon energy=-541.0657140390597 unit_cell=conventional pbc="T T T"
C		0.27757534		3.53520948		0.96304839		2.72794237		-5.70722771		8.68149184		0
C		2.85365730		2.05944054		1.89883758		-3.42502565		2.93207766		-6.92434600		0
C		0.90774115		3.38085690		2.31433551		-1.92637125		-0.79790592		-7.30201378		0
C		0.29225313		1.53506932		6.95365856		-4.97068908		-0.48672241		-0.28240799		0
C		1.16221834		2.38418833		7.73471308		2.24259715		2.73599785		-0.51812387		0
C		0.29732465		0.13336316		6.47397206		-7.47939834		-1.72946670		2.96307718		0
C		2.88323147		1.27544834		5.42389124		0.64438130		-2.10560307		1.23745195		0
C		1.16451128		2.86274796		4.58277967		0.64674660		1.19969817		-2.85629468		0
C		3.67607812		0.06490029		5.41641837		-0.49310723		2.48589784		3.71591733		0
C		2.98288894		1.65593921		9.89209635		1.40198681		-1.76689082		6.00173978		0
C		3.52044003		0.37235696		9.36961748		-0.00261489		1.04178615		2.35366042		0
C		1.11610885		-0.88880404		8.85855129		-1.19215686		-1.32390424		-1.08693062		0
C		-1.01414126		1.98155076		6.53134572		0.30909098		-1.25525759		2.18194490		0
C		2.62982253		2.76621678		7.44548576		-0.72432720		2.92842746		1.74918606		0
C		1.02679009		2.55906849		0.17309270		2.16509739		-0.75704870		8.07429508		0
C		0.63929657		0.78418258		2.16553436		4.94761414		-1.54859949		-3.32447994		0
C		1.39898091		2.04203705		1.69341240		-2.49285691		5.50528860		-2.72353567		0
C		3.58834718		0.86780007		2.07888665		-2.06091254		-6.20062341		-3.74166695		0
C		-1.11986137		3.32918981		1.20139261		-1.76784727		-1.60311066		1.52827719		0
C		0.54427962		0.26937004		9.47087687		0.42425711		-0.03374460		2.44382134		0
C		2.64539140		-0.58610247		8.64819473		-1.50510075		-0.96901158		3.06115962		0
C		1.37750055		0.53881896		3.58313640		5.76255549		2.74258578		-8.46558278		0
C		1.78226094		1.56058997		4.51950290		0.85848391		-0.76190546		-1.00988080		0
C		0.21248379		3.28192834		3.58282262		5.90965472		5.47526285		-5.75675963		0
24
Lattice="4.566814972841 0.0 0.0 2.2764613608468087 4.428778423471908 0.0 -0.024532930034101848 -0.6569774351779334 7.579437773679833" Properties=species:S:1:pos:R:3:force:R:3:tags:I:1 config_type=shaiducarbon energy=-612.4581649222 unit_cell=conventional pbc="T T T"
C		3.53280860		0.83038351		2.79755915		3.74138285		-0.16856756		6.05944500		0
C		3.99923842		-0.08150349		1.71458922		1.77702834		-6.16502660		9.94797422		0
C		4.17800868		0.16645812		3.94098870		1.89142035		2.62257050		-7.15773932		0
C		1.17140950		-0.10054209		3.34215869		-2.93484608		0.32075029		-3.22790473		0
C		2.00562914		1.14431961		3.21729877		-2.00609331		3.39462144		3.98732831		0
C		4.25646838		1.11001964		5.23782806		1.72148981		4.81904335		2.55448419		0
C		1.07595942		1.56662944		5.61134785		-1.28247761		2.34274901		5.35920859		0
C		4.02158841		0.66986681		6.78294779		3.42567725		6.67120401		-6.14700608		0
C		3.18131866		-0.47096375		6.74629773		2.30527762		-0.98578128		-0.79430103		0
C		1.76974949		-0.46726692		6.74465779		-2.07623221		-0.51382928		-1.64075214		0
C		1.02583954		0.71335568		6.92231740		-1.80197725		8.76272334		-7.64781244		0
C		5.66034795		3.02318904		1.29846971		-1.37431888		-0.98306614		4.55988369		0
C		3.97067847		2.98493877		1.31096954		2.63004416		-2.47091143		5.00435381		0
C		1.76731949		2.37434921		0.14970111		1.11107528		5.51910414		-9.28909746		0
C		4.23960862		2.11083942		2.57968920		4.72113341		4.62162398		4.71177184		0
C		5.72411804		2.24871933		2.59485924		-5.46899597		3.83407040		7.27556947		0
C		3.11989911		4.03797871		1.94344921		-2.41484582		-4.75529875		8.13690643		0
C		4.19663854		3.04667891		3.80327867		2.02784670		-6.28180766		-6.94115580		0
C		5.77373786		3.08021897		3.86275870		-0.92063893		-6.62335527		-6.38513961		0
C		1.99686907		1.91075949		4.51190861		-1.37190626		3.24372796		-2.66031990		0
C		3.42504866		2.32063936		4.96824806		-0.67403785		-3.98881845		-0.28152280		0
C		3.27517904		1.77775923		7.54824734		-3.38685933		3.71065616		-6.93513767		0
C		6.16913772		2.69560912		6.55119792		4.25347125		-9.20079906		0.57744001		0
C		3.17502879		2.84506910		6.38547779		-3.89261752		-7.72558308		0.93352341		0
24
Lattice="6.721716851993 0.0 0.0 0.186278939119282 5.338985756652668 0.0 0.5219278701235525 0.746238283191411 5.14233520843076" Properties=species:S:1:pos:R:3:force:R:3:tags:I:1 config_type=shaiducarbon energy=-474.07727033310016 unit_cell=conventional pbc="T T T"
C		0.54107199		2.42305928		1.68892950		-2.12055096		-0.97378904		1.90843058		0
C		0.99470789		0.92426968		1.63032957		-2.57743733		-1.29385420		0.65029407		0
C		1.94785944		2.02686919		4.32246858		-3.98888077		-2.25364621		-0.88020753		0
C		1.24852933		3.82305846		1.75830904		-3.11439512		2.92640535		0.03932450		0
C		0.36123111		5.05970850		1.65347916		1.79273856		-0.04566490		0.64017737		0
C		0.47933706		5.23413840		4.27626821		-0.54254436		4.07749763		-1.12588238		0
C		2.42239921		0.65317410		1.66664969		-3.68414804		-3.47790840		1.70232023		0
C		3.02275876		3.19867886		4.13152881		4.43668594		2.62573882		-1.41021598		0
C		2.61560891		4.19270853		1.80762964		-2.53265477		3.82826808		0.74762981		0
C		3.03597903		4.87302828		4.22587818		4.23005860		-4.15116420		-2.21021231		0
C		1.93725929		5.72957800		4.26243827		-5.83849338		3.89730393		-0.25415251		0
C		3.61163896		1.47916958		1.71782952		3.48678740		3.73733212		0.35056636		0
C		4.45685856		2.77155879		4.11934838		1.55799821		2.25389841		-2.07109285		0
C		3.57206889		3.22489893		1.52603944		5.38652761		-3.53960528		2.93327775		0
C		4.45860822		5.24786818		4.02153866		2.59642924		-3.20448285		-0.78847853		0
C		4.90882814		1.33157950		4.13290877		2.30093690		-0.12804603		-3.20422814		0
C		4.98309841		1.15291963		1.67712952		3.45253325		2.01929098		2.08640351		0
C		5.24791792		3.97098866		4.13435865		-1.60202613		0.99266518		-2.06208365		0
C		5.00362788		3.64974841		1.77716951		0.91056503		-2.76137607		1.49655108		0
C		6.33359753		1.20312951		4.19631876		2.70408516		0.02626947		-1.22673723		0
C		5.82442815		2.38700937		1.59887933		-2.96173546		-0.45758330		2.13985787		0
C		7.25453726		2.46552910		4.07853882		-2.62706901		-2.76957484		0.41125124		0
C		6.67639769		3.90960864		4.28762858		-2.93827254		-1.50305563		-1.78992142		0
C		5.64120826		5.08302816		1.68839915		1.67286197		0.17508098		1.91712819		0
16
Lattice="4.647944686242 0.0 0.0 -0.06999339903011828 4.823623051547889 0.0 -1.6622955855322752 -1.1946705185941537 4.28015282321967" Properties=species:S:1:pos:R:3:force:R:3:tags:I:1 config_type=shaiducarbon energy=-413.2483581177228 unit_cell=conventional pbc="T T T"
C		-0.27771284		1.24906960		1.51957951		1.14200646		1.59733307		-0.10111719		0
C		-0.17219613		1.16698968		3.01089860		3.74608227		1.16259369		0.04634369		0
C		-0.30654683		3.66353835		1.57486914		0.83086623		-0.44814971		1.64052576		0
C		-0.32510096		3.55088844		3.07850853		-1.02808485		2.89474454		-1.29907119		0
C		-0.05116272		-0.00741812		3.86163840		1.72173367		-1.28285102		-2.52713790		0
C		1.75232906		1.17884938		0.94093178		-0.39580164		-3.17459825		2.11431670		0
C		1.71016942		3.60438861		0.93240048		0.48888396		-4.30731078		-1.15388498		0
C		0.01639005		2.42469888		3.74595850		4.57419418		-2.54695070		1.33980702		0
C		1.96462905		-0.11982773		1.65124928		0.49318380		3.12070060		0.02973455		0
C		2.04047932		-0.14800776		3.04758854		-2.31539198		1.22829075		0.57754232		0
C		2.05060905		2.31540897		1.62593936		0.88890868		4.54701833		0.88089231		0
C		1.86792902		2.39458903		3.08400891		-4.94925816		-2.00077418		-1.39942254		0
C		3.98759817		0.00913693		0.92674951		-0.87509746		-0.95869011		-3.08424535		0
C		3.94514849		2.51246881		0.87564582		-2.67812992		-0.00001816		2.45894996		0
C		2.08731899		1.18732955		3.80744848		-3.87579320		-0.39964242		-2.23039591		0
C		2.40707899		3.49589861		3.58453863		2.23169793		0.56830435		2.70716276		0
16
Lattice="5.340497147337 0.0 0.0 -0.7541369426726051 4.043082110860096 0.0 0.26636797621772756 -1.8324260406971242 6.744812915212148" Properties=species:S:1:pos:R:3:force:R:3:tags:I:1 config_type=shaiducarbon energy=-300.32687759793384 unit_cell=conventional pbc="T T T"
C		3.60356667		2.82689070		1.45151722		-3.19142022		1.71490438		-0.07026203		0
C		2.14807773		3.49456819		1.45269800		3.18899623		-1.69059822		-0.05621835		0
C		0.93275468		2.82722928		1.44564267		-3.19027211		1.71638485		-0.03531929		0
C		-0.02409846		0.80510772		1.41307205		-3.19097925		1.68607786		0.46837243		0
C		2.64557120		0.80607862		1.42238641		-3.19989409		1.68689613		0.34902470		0
C		1.19090843		1.47256091		1.41359114		3.19088347		-1.71024737		0.49722492		0
C		3.86126168		1.47219883		1.41840720		3.19844654		-1.71202514		0.45183051		0
C		-0.52135642		3.49360851		1.44268831		3.19664159		-1.69145927		0.05718127		0
C		1.79793925		0.46251963		4.75504568		3.19643409		-1.71320724		-0.01221081		0
C		3.25280869		-0.20470179		4.74670917		-3.18901166		1.69155088		0.05657372		0
C		0.58194490		-0.20356159		4.75642834		-3.19717566		1.69304958		-0.05914386		0
C		4.46768955		0.46332711		4.74598766		3.18580860		-1.71495749		0.12411886		0
C		2.75556782		2.48384707		4.77687870		3.20339025		-1.68972558		-0.36952125		0
C		1.54012942		1.81730816		4.78777171		-3.18821461		1.70606665		-0.52429958		0
C		4.20939694		1.81790897		4.77855135		-3.20013298		1.71419590		-0.41886189		0
C		0.08416730		2.48490876		4.78670575		3.18649981		-1.68690592		-0.45848932		0
16
Lattice="4.906414841768 0.0 0.0 1.3456382409181336 5.198552594276551 0.0 1.0823256756049704 -2.167344972958071 4.59979335264655" Properties=species:S:1:pos:R:3:force:R:3:tags:I:1 config_type=shaiducarbon energy=-343.0963086403509 unit_cell=conventional pbc="T T T"
C		4.68820891		4.74289875		0.53728334		6.00976116		-1.14337716		-1.93395548		0
C		6.97002790		2.49019884		4.29668584		-1.15152476		0.74797400		1.70304644		0
C		5.36482609		2.14771980		0.82059886		-7.64043792		0.41609475		-0.99547565		0
C		2.14151662		4.71589630		0.54767905		-4.92986040		1.20494696		-2.07012149		0
C		4.51034843		2.50421843		4.50295005		0.08779753		-1.28046173		-4.16838602		0
C		3.72917850		-0.35499138		1.93711146		7.59174604		-0.21676961		1.07790636		0
C		3.89266760		2.15581588		0.85372649		7.61352936		-0.23201879		0.66786919		0
C		5.19984887		-0.35861967		1.90995887		-7.58971539		0.53928592		-0.74072089		0
C		2.10557076		2.36032016		2.85495890		-0.22020681		1.11583021		4.07033432		0
C		4.50146831		-0.08961420		4.12973624		5.14404830		-0.46628065		-5.00847678		0
C		1.96933728		-0.13303597		3.97512824		-4.78472224		0.40127283		2.17645027		0
C		4.55252888		2.38172684		3.06022907		1.22410270		-0.96819075		-1.61671749		0
C		3.39195864		2.31365132		2.21333820		4.91956112		-1.20760139		2.01784795		0
C		3.28329627		-0.20315354		3.37615655		4.87069086		-0.39459642		-2.09296363		0
C		5.64446769		-0.19489604		3.23675059		-5.13574091		0.37166838		4.93430460		0
C		5.75044625		2.28354850		2.21966747		-6.00902866		1.11222347		1.97905831		0
24
Lattice="5.48477672721 0.0 0.0 0.26794231267766294 5.533218275264718 0.0 0.33952961852120783 -0.2027118630609544 5.332574173029923" Properties=species:S:1:pos:R:3:force:R:3:tags:I:1 config_type=shaiducarbon energy=-565.0315820292266 unit_cell=conventional pbc="T T T"
C		2.90779661		3.22063841		4.24228996		2.35843278		5.28098790		2.45586047		0
C		0.61296439		3.83901627		2.46076866		5.90299313		-5.91525685		-3.77631860		0
C		3.60683031		5.39004312		3.58450672		-6.36711123		2.99058765		2.32083130		0
C		5.10734895		0.05389835		5.31942716		0.08142655		2.01593435		-0.54291172		0
C		0.70218470		1.73425953		1.52824034		-3.36589571		1.72103827		8.45738817		0
C		4.88719549		3.31633076		2.86762776		1.62594611		-5.34025412		1.09932375		0
C		3.47102834		1.17595917		2.72468844		-5.10223239		-2.04101222		3.06155335		0
C		1.58325046		2.80055826		2.01869840		-3.03683264		2.53736576		2.99436924		0
C		1.39724852		1.18903762		4.15091139		2.04118014		-2.63947633		-4.13738057		0
C		2.41883151		3.70212063		1.03978203		-6.61271303		5.49448914		-3.53764616		0
C		3.45029917		3.20956958		0.09236035		-5.91619881		7.99858500		-6.00617870		0
C		5.97378955		4.26485982		5.22821862		2.56015365		-1.01567257		0.26201382		0
C		3.90512648		4.02392016		3.50585667		-5.50480867		-1.69286335		7.38220778		0
C		3.32214627		0.58512805		0.11219220		-4.33761587		-7.37598231		-4.04823365		0
C		2.01147824		4.18173912		5.08078892		9.08444387		0.37460823		3.39309436		0
C		1.09214739		5.11281562		2.32184969		6.42661936		1.34286018		-1.79933047		0
C		4.87485584		3.17039072		0.03117437		1.87895726		0.31581959		-1.39196399		0
C		2.37160868		4.98613977		1.69881854		-3.81552998		-2.42991956		-1.37799825		0
C		2.33262015		0.04095044		4.63691636		3.07948087		-3.41701447		-1.37418692		0
C		3.02175711		0.45369909		1.49189876		-2.05702909		-0.85111909		3.30990310		0
C		4.81639745		1.85327150		2.62216974		5.96636561		0.25488287		-1.09173915		0
C		0.46619725		0.82701932		2.93394913		5.33617420		7.10233659		-3.12070702		0
C		2.33102627		2.14475612		3.35838967		-0.80778096		-3.25149204		-2.49800083		0
C		0.15408712		1.75165011		0.10527590		0.58157485		-1.45943261		-0.03394933		0
16
Lattice="8.614119421941 0.0 0.0 0.52794215113192 6.859922914618092 0.0 0.08893216891211889 -0.01772785777035458 2.488532959804535" Properties=species:S:1:pos:R:3:force:R:3:tags:I:1 config_type=shaiducarbon energy=-301.75072694760837 unit_cell=conventional pbc="T T T"
C		0.69096867		2.14711923		0.61934313		-0.58071081		0.12533272		1.84638876		0
C		1.42835969		2.11310896		1.88328942		0.01590197		0.30741732		-1.92220733		0
C		1.14780988		5.46882791		1.80446937		0.39366573		-1.12059409		-1.33945435		0
C		3.55264891		2.02522944		0.64815736		0.48414370		1.10836870		-1.37565377		0
C		2.85601905		2.05789935		1.87830960		-0.19550829		0.35673149		1.37659159		0
C		3.23748843		5.44743819		0.51683855		-0.37418424		0.17118771		-0.50934995		0
C		2.57543909		5.47431769		1.77249893		-0.20510874		-0.76878749		0.52911725		0
C		5.02317816		2.07935884		0.65296576		-1.10614144		-0.02214135		2.71483969		0
C		4.67017844		5.45724795		0.54273518		0.31738804		-0.27703746		0.00195625		0
C		5.46662786		5.45982788		1.76045897		-0.49664280		-0.93109927		0.00753087		0
C		5.74483808		2.05671921		1.93517916		1.52932864		0.71537024		-2.76613889		0
C		6.89415715		5.39190813		1.75599944		0.16684383		-0.26544612		1.89625678		0
C		7.86364700		2.14099890		0.71995173		0.60897959		0.19723585		-1.11225943		0
C		7.20676699		2.07524905		1.96106889		-0.79711287		1.17923180		1.21025175		0
C		9.02481652		5.43806775		0.55148712		-0.42499276		-0.66394975		1.37641567		0
C		7.56991673		5.38823765		0.53888984		0.66415047		-0.11182030		-1.93428488		0
24
Lattice="3.174112127285 0.0 0.0 -0.46142385405554776 6.0084133325592495 0.0 0.6633830863783103 -0.054264620928064354 7.291884615899703" Properties=species:S:1:pos:R:3:force:R:3:tags:I:1 config_type=shaiducarbon energy=-659.5802792563264 unit_cell=conventional pbc="T T T"
C		1.84947928		1.60810931		1.25798951		-0.79553759		-3.57905477		0.96258311		0
C		2.65123905		0.36222872		1.25536960		-0.80189845		0.57850995		0.11419366		0
C		0.44685182		2.79376906		2.67098901		0.86711275		0.46088853		0.28740438		0
C		1.18532964		1.45175953		2.59977907		1.36290307		-2.10904482		-1.91087309		0
C		0.50229880		0.17600896		2.34672902		2.14345834		2.16020625		-2.71144727		0
C		2.51897919		3.03134882		1.53276954		-1.10028737		-3.35629771		4.43829845		0
C		1.93854931		0.92692771		3.90455849		-1.31630716		-3.80824539		-1.92934051		0
C		2.08675939		2.10864934		4.77186844		0.05133158		2.92280785		1.77250406		0
C		1.73948931		1.54710955		7.21344754		-0.86101708		-4.83476230		-0.99148244		0
C		0.68615163		2.56042897		6.54623775		0.57274797		-7.10821682		-2.82387119		0
C		0.91576055		0.21171994		7.26889738		0.86818052		1.81441068		1.01817602		0
C		2.71958911		1.58008952		6.09836767		1.33223837		-0.43645684		1.12680729		0
C		3.28366883		0.20006778		6.00064787		-0.02985906		0.93686221		1.50228593		0
C		0.54210693		4.93621825		0.18342400		-0.96316001		7.33764262		0.28693847		0
C		-0.22105406		3.66888860		0.21956000		2.23092232		-0.84252249		1.10718961		0
C		1.51868950		3.93512868		2.45026919		1.38426366		-3.02340143		2.50949006		0
C		1.11630952		5.21780802		1.58990927		-1.05030873		7.10429618		-0.51296118		0
C		2.14025937		4.35374836		3.74892860		-0.74735304		-1.94702290		2.54959616		0
C		2.99443897		3.05313878		4.03456854		-1.30922865		1.76342285		0.34394712		0
C		2.61579914		5.74336799		3.61905885		-1.97882126		1.15135534		1.60728661		0
C		0.93612661		3.10541894		5.13845808		1.53500449		-1.53459194		-3.09209757		0
C		1.35253965		4.55012846		4.99669810		0.48003578		1.35669319		-4.61803853		0
C		0.47759786		5.87169798		4.66314843		1.04115782		-1.59686649		-0.70908985		0
C		2.00487936		4.98438826		6.19580783		-2.91557829		6.58938827		-0.32749929		0
16
Lattice="5.264858174488 0.0 0.0 0.09861079360816025 4.080712598173031 0.0 0.61296637782294 1.0475751552687498 5.65710590306188" Properties=species:S:1:pos:R:3:force:R:3:tags:I:1 config_type=shaiducarbon energy=-331.33926759516487 unit_cell=conventional pbc="T T T"
C		3.91342857		3.28801028		4.33533851		-0.30900707		-2.40100015		-0.30394640		0
C		2.62408165		3.28027147		1.52112177		-0.29256991		-2.38523080		0.14418388		0
C		1.29633812		2.62117019		1.52129130		0.31173435		2.34494035		0.10979898		0
C		2.54796128		1.24726965		4.31413009		-0.31025767		-2.34020890		-0.10025744		0
C		1.25884918		1.24024738		1.50175762		-0.28771646		-2.36338202		0.26274760		0
C		1.31879801		4.66895941		4.31486559		0.29309652		2.37950448		-0.14142083		0
C		5.25655971		3.28028042		1.52092960		-0.29379317		-2.38451906		0.14720660		0
C		5.19584799		0.58041429		1.50158757		0.30938866		2.40528620		0.29548774		0
C		2.56347787		0.58038428		1.50105055		0.30783143		2.40498585		0.30266703		0
C		5.18039774		1.24727070		4.31470711		-0.31166365		-2.34097071		-0.10592439		0
C		3.89122667		1.24020947		1.50293958		-0.28925878		-2.36174844		0.25096623		0
C		3.95123078		4.66897100		4.31581010		0.29211459		2.38087305		-0.15102143		0
C		2.58561134		2.62827038		4.33357952		0.28963991		2.35848304		-0.25382712		0
C		1.28098685		3.28798817		4.33435978		-0.30739148		-2.40009685		-0.29253036		0
C		3.92873878		2.62115123		1.52249063		0.30968510		2.34465290		0.09734327		0
C		5.21805727		2.62826037		4.33429765		0.28816763		2.35843106		-0.26147338		0
16
Lattice="4.879836926943 0.0 0.0 2.149631604198442 4.3412102866208855 0.0 -2.3400135620661957 -1.0288843370243699 4.466475700535512" Properties=species:S:1:pos:R:3:force:R:3:tags:I:1 config_type=shaiducarbon energy=-421.8325562847549 unit_cell=conventional pbc="T T T"
C		4.87959781		0.04716704		0.04860415		0.55147014		0.51935405		-0.39695681		0
C		2.34600844		1.69899818		2.28227045		0.54954484		0.53320756		-0.41102768		0
C		5.84726655		3.70192627		0.59145966		-0.54917248		-0.53285329		0.41185909		0
C		4.67862710		3.18330843		2.82425930		-0.55332244		-0.51857373		0.39856224		0
C		3.51455957		2.21780781		0.04916680		0.55267684		0.51822392		-0.39904333		0
C		-1.16854820		-0.47157183		2.28173904		0.54964266		0.53370707		-0.41100552		0
C		1.27094914		-0.47148252		2.28202939		0.54872501		0.53302769		-0.41033482		0
C		5.95460881		2.21775022		0.04881398		0.55267237		0.51938206		-0.39737723		0
C		3.40716851		3.70201948		0.59180808		-0.54874885		-0.53382293		0.41035244		0
C		2.43981745		0.04721535		0.04924292		0.55339563		0.51866191		-0.39864178		0
C		4.78601035		1.69910749		2.28162729		0.54837264		0.53263553		-0.41074706		0
C		4.77237999		1.53131918		0.59133473		-0.55029177		-0.53333757		0.41164194		0
C		3.60405187		1.01258031		2.82452720		-0.55256877		-0.51844500		0.39756534		0
C		1.16373619		1.01263838		2.82484000		-0.55239447		-0.51923665		0.39790470		0
C		2.33258108		1.53140018		0.59209404		-0.54842352		-0.53334894		0.40947120		0
C		2.23864764		3.18319717		2.82492930		-0.55157783		-0.51858170		0.39777727		0
16
Lattice="6.374946105538999 0.0 0.0 0.5425907878807409 5.810125880588244 0.0 -0.4611891010591134 0.23598137998873717 3.185821941728165" Properties=species:S:1:pos:R:3:force:R:3:tags:I:1 config_type=shaiducarbon energy=-346.5380781114749 unit_cell=conventional pbc="T T T"
C		-0.29867260		0.46256481		1.98306915		5.94515209		-4.56103266		4.26103213		0
C		0.70767448		3.45958826		1.48548930		0.13416127		3.57131566		0.42448448		0
C		0.12587969		4.74069807		2.37951876		2.85724811		-5.79889081		1.42391076		0
C		1.79028950		2.43268900		2.17209905		1.54006784		6.00466975		-0.21031239		0
C		0.97432445		1.07588945		2.55136882		-0.35532557		-0.35821342		-2.14880400		0
C		2.46820892		5.67287775		0.21138174		-1.97402861		-7.03034498		-1.67216927		0
C		1.57407938		4.26527818		0.35796406		1.03278733		-3.07377584		-3.07911219		0
C		3.21039863		2.42301884		1.33959930		1.92567476		6.83202683		-3.96495251		0
C		2.79035854		3.28031841		0.09629292		0.84048181		0.96924256		4.07983042		0
C		3.74959859		5.65862784		0.69419784		0.06274360		-2.60047336		-1.22530652		0
C		3.90825825		1.11976948		0.97016544		-1.75972879		4.86463303		0.42203119		0
C		4.48653790		3.43097878		1.58399943		0.58217080		-0.99321129		-6.80291677		0
C		4.12204844		4.27601805		0.41262412		-0.92171030		-8.92394502		2.77751173		0
C		4.99315805		4.07880845		2.81281875		-0.16413048		-4.75847971		2.96991846		0
C		5.77194760		2.91187903		0.86952034		-6.25294611		7.62660696		2.44776280		0
C		5.32769801		1.26311971		1.19895970		-3.49261776		8.22987231		0.29709168		0
16
Lattice="4.406990289416 0.0 0.0 -0.06681437977783598 4.09902980799161 0.0 0.47537322853872516 -0.46052607825368264 5.322115043984101" Properties=species:S:1:pos:R:3:force:R:3:tags:I:1 config_type=shaiducarbon energy=-421.51544324957837 unit_cell=conventional pbc="T T T"
C		1.62473921		1.77422917		1.78517922		0.43802285		1.94410664		0.67358469		0
C		1.59982958		0.17971486		1.78908954		0.28524385		-1.57683930		0.77130542		0
C		0.14542715		3.76111854		1.89742923		0.28828537		-0.43382568		0.42079684		0
C		0.12584910		2.27583942		1.80904924		-0.12386478		-0.09657878		0.92348328		0
C		1.81379954		3.60465893		4.51481832		-0.15427041		-11.63305862		-0.54823905		0
C		1.88639941		2.09619947		4.39438850		0.05699205		11.78852535		1.03137447		0
C		3.73049877		1.89601943		0.42618373		-0.33773177		2.35334193		0.47542788		0