16
Lattice="4.389767165597 0.0 0.0 -0.9754852800046341 6.727326960811733 0.0 -0.2002611780945351 -0.13304067348774828 5.042371901270478" Properties=species:S:1:pos:R:3:force:R:3:tags:I:1 config_type=shaiducarbon energy=-4060.421395178005 unit_cell=conventional pbc="T T T"
C		0.91984366		0.52648673		2.96039884		-0.49961638		0.90536788		0.32738370		0
C		-0.13430010		1.29729955		3.36298877		0.28971573		-0.21362336		-0.13897132		0
C		0.12121288		3.21919844		1.12289937		0.18379802		-0.13319996		1.54717023		0
C		0.84735544		3.53745831		2.46860883		0.72165522		-0.51586731		-0.20167235		0
C		0.02362704		2.82940862		3.67240854		-0.15454013		-0.92342784		-0.50196868		0
C		0.74717876		2.94796877		5.03919766		-0.44238152		1.43758973		-1.77162668		0
C		1.01207970		5.02893790		2.69798865		-2.14339563		1.33502783		0.39663128		0
C		-0.11431788		5.73689760		3.06145874		1.26126180		0.75797208		-0.53058843		0
C		3.10349866		0.56711358		3.09577882		-0.34332481		1.32164060		-0.75139622		0
C		2.03240908		1.32370927		2.66202900		1.30147106		-1.04007939		0.70590155		0
C		3.07141868		3.06797886		1.15951968		0.21001250		1.26074218		-1.59119681		0
C		2.21981922		2.88169865		2.43684887		0.69367414		-1.79200809		0.73221732		0
C		3.04209855		3.48522842		3.65127839		-1.82818945		0.84792914		0.73317557		0
C		2.17475913		3.16723852		4.99438780		0.38816257		-0.77203011		0.51156045		0
C		3.13572877		5.05197803		3.41458873		1.25735758		-0.59441971		0.04684219		0
C		2.10349917		5.84267738		3.01334865		-0.89566119		-1.88161342		0.48653794		0
16
Lattice="5.2508587969530005 0.0 0.0 0.18495625026387247 4.673537373945612 0.0 -0.18483022965274562 -0.1423980397145684 5.866443228013785" Properties=species:S:1:pos:R:3:force:R:3:tags:I:1 config_type=shaiducarbon energy=-4058.450994446244 unit_cell=conventional pbc="T T T"
C		0.16789516		1.48962926		2.27167904		0.79367728		-0.83545233		0.69629718		0
C		0.11336919		0.02511066		2.33102897		0.22181027		0.22920143		-0.46662113		0
C		1.66046963		0.03442673		2.29868893		-0.45732659		-0.00810978		0.56830911		0
C		1.71191912		1.48437945		2.32592934		-0.20585399		0.08583609		-0.65746861		0
C		0.54047562		0.48930285		5.21563814		-0.54428676		-0.46666304		0.39776154		0
C		1.64389949		1.35974927		5.24254826		0.24636998		-0.31140891		-0.47996054		0
C		0.68322179		3.69568884		5.20645806		-1.38034845		0.88984381		-0.27220624		0
C		1.69441958		2.80066893		5.12848806		1.21411879		-0.07136951		1.20656051		0
C		4.22873870		0.45858008		5.27315814		0.94807805		0.26290321		-0.48055421		0
C		3.19244864		1.36944970		5.27783823		-0.56568761		-0.26100445		-0.06413262		0
C		2.90260911		3.80748855		2.36961911		-0.39499863		0.31216790		-0.84945740		0
C		2.81690879		2.36291901		2.28535910		0.89113270		-0.08534809		0.82334397		0
C		4.38828815		2.36251890		2.35145901		-1.15879503		0.95444822		-0.62994339		0
C		4.41614815		3.83675842		2.34087906		0.42429431		-0.63535068		0.20965974		0
C		4.37733853		3.70196887		5.19804828		-0.14433721		-0.80530664		0.62979118		0
C		3.24649888		2.80119875		5.25098797		0.11215263		0.74561252		-0.63137961		0
16
Lattice="6.700692120606 0.0 0.0 -0.03264577201159243 2.7679219011799265 0.0 -0.14896308653319199 0.15073876994515256 6.762968353174912" Properties=species:S:1:pos:R:3:force:R:3:tags:I:1 config_type=shaiducarbon energy=-4054.1855589860143 unit_cell=conventional pbc="T T T"
C		0.45227662		1.62723829		3.68467575		0.87338873		-0.63916774		-1.39829425		0
C		1.11210181		1.49298992		4.93565611		0.25785459		0.97440051		-0.61113369		0
C		6.15041922		1.71040862		1.25737818		-0.52887710		-0.16144946		1.66680453		0
C		6.04086894		1.91607832		6.65930731		-0.73146399		-1.38043175		0.04621921		0
C		3.19133127		1.72849915		3.77728133		-0.74761618		0.10340419		3.67457976		0
C		3.01792807		0.31719870		1.71498117		0.21274121		0.08067922		1.15692044		0
C		2.83798769		1.86250964		6.42405740		1.03504671		-0.49518251		0.33190062		0
C		4.93750952		0.28582874		4.79144917		-0.93622680		0.03796597		-1.15553513		0
C		3.00668163		1.71198998		2.37942917		-0.96069884		-0.33564775		-1.37712197		0
C		2.48511785		1.75201925		5.01953068		-2.86796366		0.43248097		-2.28489229		0
C		4.49270686		1.69058864		4.32861897		2.43472601		-0.14596601		0.39698969		0
C		3.01582674		0.31514561		0.31198959		-0.02730719		0.30819683		-0.93015668		0
C		6.32691411		0.29279612		1.84349777		-0.07114068		-0.05888139		0.28361784		0
C		0.25135167		1.12316063		5.96057722		1.29901025		-0.41227105		-1.05374379		0
C		0.23117656		0.26779249		3.08724874		-0.25826340		-0.02914399		1.02043975		0
C		5.76934818		0.30023523		5.88795646		1.01678981		1.72101422		0.23340518		0
16
Lattice="4.926283850587001 0.0 0.0 -2.0817884398518594 4.447907204708049 0.0 0.1456948448811105 1.5172412368584396 5.440321865260352" Properties=species:S:1:pos:R:3:force:R:3:tags:I:1 config_type=shaiducarbon energy=-4064.282762630566 unit_cell=conventional pbc="T T T"
C		0.09806655		1.72386929		3.82050850		-1.36186220		2.54484285		1.49074322		0
C		0.18480708		3.27197862		3.88496843		0.01206285		-1.67237277		-1.05243150		0
C		-1.01635936		4.01065862		3.86710868		1.39249795		-1.65110767		1.25996545		0
C		-0.82889061		5.46052800		3.94286853		0.90289345		-0.49391521		-1.45554042		0
C		1.25303971		2.61610895		1.06339946		0.05644116		-2.87943079		1.52372278		0
C		1.06196935		1.06327975		1.16221972		0.58009043		0.95848229		-0.79778076		0
C		0.08013044		3.29578883		1.20422959		-2.14134775		0.76892576		-0.91270813		0
C		0.14038776		4.74763808		1.06847944		1.37027640		1.67362130		1.90921038		0
C		2.58295900		1.73406916		3.90011823		-1.38719710		0.21671717		0.68417776		0
C		2.68048908		3.17502886		3.95491822		-1.37469253		2.30525339		-1.79954606		0
C		1.46285950		3.94749825		3.80102850		1.69604596		0.34211999		1.98827803		0
C		1.66503911		5.44812805		3.88701826		-0.03409851		-1.47075776		-1.04937420		0
C		3.67001841		2.56753875		1.24504928		1.88771337		-0.38469338		-0.95518047		0
C		3.54584847		1.11640972		1.20548974		-1.13573942		-1.40996912		-0.88672763		0
C		2.52847923		3.33611883		1.16799973		-1.06915499		-0.31087258		-0.42672066		0
C		2.62357917		4.77789827		1.13686956		0.60607042		1.46315680		0.47991194		0
16
Lattice="4.615329391024 0.0 0.0 0.6231340823997144 4.769084474356574 0.0 -2.0968779868945426 2.300774008731201 4.178917689796944" Properties=species:S:1:pos:R:3:force:R:3:tags:I:1 config_type=shaiducarbon energy=-4054.2630963626652 unit_cell=conventional pbc="T T T"
C		1.54455783		3.47142046		1.99636950		-0.03882189		0.02086400		0.08322976		0
C		0.49606945		4.62183054		4.08554081		-0.03502077		0.02541486		0.08702600		0
C		3.72325683		2.30111047		0.95136846		0.03182000		-0.01175998		-0.07685033		0
C		4.16299896		5.85650823		1.99710103		-0.03037966		0.01483193		0.08125335		0
C		0.80653066		7.00700508		4.08644726		-0.02512253		0.01443393		0.07630757		0
C		1.41585752		2.30084832		0.95182815		0.02511738		-0.00857052		-0.08405997		0
C		3.11417874		7.00656616		4.08669833		-0.02289543		0.01704051		0.07536243		0
C		1.85548888		5.85624931		1.99715133		-0.03267926		0.01598199		0.08227588		0
C		4.03377527		4.68636623		0.95224999		0.03933842		-0.02412776		-0.08747028		0
C		2.80380014		4.62132886		4.08618834		-0.03570622		0.03141762		0.07889230		0
C		0.67814512		5.83685801		3.04175960		0.03166239		-0.02653303		-0.08643078		0
C		2.67495122		3.45158655		3.04092792		0.02493304		-0.01883849		-0.07476388		0
C		0.36716699		3.45202685		3.04036808		0.02778439		-0.02328136		-0.06785146		0
C		2.98574889		5.83635770		3.04209791		0.03553627		-0.02225780		-0.08884171		0
C		3.85202960		3.47170615		1.99591858		-0.03500097		0.01719247		0.08952125		0
C		1.72619642		4.68606624		0.95234645		0.03943484		-0.02180837		-0.08759987		0
24
Lattice="4.406951130318 0.0 0.0 -2.0712009269825056 3.842856978686166 0.0 0.4568818445334581 -1.433616458301488 10.125944158105407" Properties=species:S:1:pos:R:3:force:R:3:tags:I:1 config_type=shaiducarbon energy=-6084.675465227591 unit_cell=conventional pbc="T T T"
C		0.27757534		3.53520948		0.96304839		-1.35313124		-1.03514056		0.41740349		0
C		2.85365730		2.05944054		1.89883758		1.26255686		-2.01762077		-0.16619444		0
C		0.90774115		3.38085690		2.31433551		-1.63720031		-1.36543218		-1.68873065		0
C		0.29225313		1.53506932		6.95365856		0.28441514		-1.42861169		-0.59758808		0
C		1.16221834		2.38418833		7.73471308		-0.01958796		0.46478356		0.28529368		0
C		0.29732465		0.13336316		6.47397206		-1.14635628		0.92636790		1.04177169		0
C		2.88323147		1.27544834		5.42389124		0.30813641		-0.95913560		-0.71204880		0
C		1.16451128		2.86274796		4.58277967		0.31485728		0.17423917		0.75523283		0
C		3.67607812		0.06490029		5.41641837		-0.63221316		-0.11277279		-0.02726246		0
C		2.98288894		1.65593921		9.89209635		-0.19112027		-0.95314621		0.14871401		0
C		3.52044003		0.37235696		9.36961748		1.93046339		0.98688091		-0.38803530		0
C		1.11610885		-0.88880404		8.85855129		-0.34945690		-0.02087120		-1.07755274		0
C		-1.01414126		1.98155076		6.53134572		0.87385128		-0.55980724		-0.30894219		0
C		2.62982253		2.76621678		7.44548576		0.50893201		1.04698101		0.78478485		0
C		1.02679009		2.55906849		0.17309270		-0.13868490		1.12144253		0.46103361		0
C		0.63929657		0.78418258		2.16553436		1.35110084		0.82243869		0.13573970		0
C		1.39898091		2.04203705		1.69341240		1.24875183		-0.51830137		-0.11373412		0
C		3.58834718		0.86780007		2.07888665		0.87907885		2.08893397		0.92604574		0
C		-1.11986137		3.32918981		1.20139261		-0.61148799		1.17577512		-0.96747216		0
C		0.54427962		0.26937004		9.47087687		-1.64479612		0.75974203		0.26351128		0
C		2.64539140		-0.58610247		8.64819473		-0.08848073		-1.33378110		-0.05644656		0
C		1.37750055		0.53881896		3.58313640		0.47750436		-0.21447234		1.12483073		0
C		1.78226094		1.56058997		4.51950290		-0.50096750		0.13173134		0.09165321		0
C		0.21248379		3.28192834		3.58282262		-1.12616462		0.81977682		-0.33200758		0
24
Lattice="4.566814972841 0.0 0.0 2.2764613608468087 4.428778423471908 0.0 -0.024532930034101848 -0.6569774351779334 7.579437773679833" Properties=species:S:1:pos:R:3:force:R:3:tags:I:1 config_type=shaiducarbon energy=-6084.813017474467 unit_cell=conventional pbc="T T T"
C		3.53280860		0.83038351		2.79755915		-1.51040163		0.56008209		-0.63568646		0
C		3.99923842		-0.08150349		1.71458922		3.30591568		-2.32313517		-1.81344340		0
C		4.17800868		0.16645812		3.94098870		2.69690160		-2.90770677		1.92775113		0
C		1.17140950		-0.10054209		3.34215869		-0.32762230		0.21589724		-0.21992616		0
C		2.00562914		1.14431961		3.21729877		1.22503467		-1.07818857		-0.18234483		0
C		4.25646838		1.11001964		5.23782806		-0.95753149		0.35360460		-0.05244232		0
C		1.07595942		1.56662944		5.61134785		1.56356437		0.04563609		0.36130738		0
C		4.02158841		0.66986681		6.78294779		-0.06843973		1.06663994		-0.27864583		0
C		3.18131866		-0.47096375		6.74629773		-2.81954846		-3.06967483		0.35652564		0
C		1.76974949		-0.46726692		6.74465779		1.71348474		-0.31917365		0.05452723		0
C		1.02583954		0.71335568		6.92231740		0.41109066		-1.11929463		-0.09560243		0
C		5.66034795		3.02318904		1.29846971		-0.26755949		1.22130682		0.64118554		0
C		3.97067847		2.98493877		1.31096954		0.12861079		-0.85928005		-0.92790516		0
C		1.76731949		2.37434921		0.14970111		-1.11732285		2.01987229		-0.18939095		0
C		4.23960862		2.11083942		2.57968920		-1.47138640		-0.01870068		0.39415710		0
C		5.72411804		2.24871933		2.59485924		1.06341526		-0.23207515		-1.47440102		0
C		3.11989911		4.03797871		1.94344921		-2.87117651		0.61781085		-1.94430853		0
C		4.19663854		3.04667891		3.80327867		-1.68727284		0.98611601		2.46325757		0
C		5.77373786		3.08021897		3.86275870		-0.17227510		2.65072636		1.21225011		0
C		1.99686907		1.91075949		4.51190861		1.18676634		0.38363511		-0.13061008		0
C		3.42504866		2.32063936		4.96824806		-0.77953877		-0.86020848		-0.11496028		0
C		3.27517904		1.77775923		7.54824734		1.81753325		0.10263672		0.51095110		0
C		6.16913772		2.69560912		6.55119792		-0.77153055		2.86473872		0.29475149		0
C		3.17502879		2.84506910		6.38547779		-0.29071177		-0.30126436		-0.15699734		0
24
Lattice="6.721716851993 0.0 0.0 0.186278939119282 5.338985756652668 0.0 0.5219278701235525 0.746238283191411 5.14233520843076" Properties=species:S:1:pos:R:3:force:R:3:tags:I:1 config_type=shaiducarbon energy=-6086.234239986408 unit_cell=conventional pbc="T T T"
C		0.54107199		2.42305928		1.68892950		-0.55067801		-0.97178930		0.37717110		0
C		0.99470789		0.92426968		1.63032957		2.78714560		2.53170090		0.02291857		0
C		1.94785944		2.02686919		4.32246858		-2.56689470		1.81860000		-1.97933110		0
C		1.24852933		3.82305846		1.75830904		-2.74521756		-0.21305180		-0.96825660		0
C		0.36123111		5.05970850		1.65347916		0.54207330		-1.05061115		0.83962472		0
C		0.47933706		5.23413840		4.27626821		4.00354007		3.47816661		-0.41455419		0
C		2.42239921		0.65317410		1.66664969		0.90333902		-2.41869106		0.69408346		0
C		3.02275876		3.19867886		4.13152881		0.79220763		-2.39801552		1.47776402		0
C		2.61560891		4.19270853		1.80762964		-1.72155878		1.03854779		-1.74394231		0
C		3.03597903		4.87302828		4.22587818		1.03570157		-2.19432974		-1.18852781		0
C		1.93725929		5.72957800		4.26243827		0.63082759		0.34972224		0.08536866		0
C		3.61163896		1.47916958		1.71782952		-2.72823155		2.45838764		-1.65602543		0
C		4.45685856		2.77155879		4.11934838		-3.82539976		-0.51558037		0.75886914		0
C		3.57206889		3.22489893		1.52603944		3.64843522		-0.52659601		2.76977444		0
C		4.45860822		5.24786818		4.02153866		-1.04348945		0.24516336		2.85693722		0
C		4.90882814		1.33157950		4.13290877		0.93134787		-0.90170946		-0.07346136		0
C		4.98309841		1.15291963		1.67712952		-0.49982747		-0.61681352		-0.46972034		0
C		5.24791792		3.97098866		4.13435865		0.62232160		0.58792844		-0.00991007		0
C		5.00362788		3.64974841		1.77716951		-0.57443323		-0.52896092		-2.86865374		0
C		6.33359753		1.20312951		4.19631876		-0.46359828		1.12455871		-0.13733327		0
C		5.82442815		2.38700937		1.59887933		-0.04648969		1.69267062		1.05592074		0
C		7.25453726		2.46552910		4.07853882		0.30901830		-0.71894116		2.42723073		0
C		6.67639769		3.90960864		4.28762858		-0.71292323		-1.35646854		-1.36786316		0
C		5.64120826		5.08302816		1.68839915		1.27278369		-0.91388852		-0.48808343		0
16
Lattice="4.647944686242 0.0 0.0 -0.06999339903011828 4.823623051547889 0.0 -1.6622955855322752 -1.1946705185941537 4.28015282321967" Properties=species:S:1:pos:R:3:force:R:3:tags:I:1 config_type=shaiducarbon energy=-4056.4184786687033 unit_cell=conventional pbc="T T T"
C		-0.27771284		1.24906960		1.51957951		-1.05130072		-0.90296698		2.50414508		0
C		-0.17219613		1.16698968		3.01089860		-1.83793420		0.89733909		1.04695196		0
C		-0.30654683		3.66353835		1.57486914		-1.25667212		0.05575621		1.36408081		0
C		-0.32510096		3.55088844		3.07850853		-1.20478593		4.62022452		-0.41531576		0
C		-0.05116272		-0.00741812		3.86163840		-0.06672326		-0.59339770		-5.53580252		0
C		1.75232906		1.17884938		0.94093178		-1.27437752		-3.11560325		1.23304829		0
C		1.71016942		3.60438861		0.93240048		-0.49503698		-4.93457272		-1.50067000		0
C		0.01639005		2.42469888		3.74595850		0.01245649		-3.68896510		0.20443885		0
C		1.96462905		-0.11982773		1.65124928		0.65951778		5.38294646		-0.15312114		0
C		2.04047932		-0.14800776		3.04758854		0.60640440		5.09234987		0.24092746		0
C		2.05060905		2.31540897		1.62593936		-1.91309815		3.99628338		0.20979549		0
C		1.86792902		2.39458903		3.08400891		1.59096541		-5.27217322		-2.96372318		0
C		3.98759817		0.00913693		0.92674951		2.60424592		0.21760908		-1.99979735		0
C		3.94514849		2.51246881		0.87564582		1.60786400		-3.92159123		2.21659962		0
C		2.08731899		1.18732955		3.80744848		2.36799015		-2.03712800		-3.15629382		0
C		2.40707899		3.49589861		3.58453863		-0.34951552		4.20388958		6.70473567		0
16
Lattice="5.340497147337 0.0 0.0 -0.7541369426726051 4.043082110860096 0.0 0.26636797621772756 -1.8324260406971242 6.744812915212148" Properties=species:S:1:pos:R:3:force:R:3:tags:I:1 config_type=shaiducarbon energy=-4059.68494704155 unit_cell=conventional pbc="T T T"
C		3.60356667		2.82689070		1.45151722		-0.06982479		0.02390408		-0.13304441		0
C		2.14807773		3.49456819		1.45269800		0.07184773		-0.04278627		-0.09832420		0
C		0.93275468		2.82722928		1.44564267		-0.06066214		0.01877961		-0.08222266		0
C		-0.02409846		0.80510772		1.41307205		-0.08913019		0.03393447		0.07488909		0
C		2.64557120		0.80607862		1.42238641		-0.08578749		0.00832421		0.02105118		0
C		1.19090843		1.47256091		1.41359114		0.06762366		-0.01974557		0.11511660		0
C		3.86126168		1.47219883		1.41840720		0.06850195		-0.00905466		0.08992363		0
C		-0.52135642		3.49360851		1.44268831		0.06318517		-0.02161400		-0.02946358		0
C		1.79793925		0.46251963		4.75504568		0.06042946		-0.00823756		0.08310557		0
C		3.25280869		-0.20470179		4.74670917		-0.07223674		0.04620353		0.09293388		0
C		0.58194490		-0.20356159		4.75642834		-0.06634737		0.01785427		0.03235196		0
C		4.46768955		0.46332711		4.74598766		0.06935196		-0.03266358		0.13472951		0
C		2.75556782		2.48384707		4.77687870		0.07972714		-0.00779893		-0.01708011		0
C		1.54012942		1.81730816		4.78777171		-0.07292683		0.01370708		-0.12907025		0
C		4.20939694		1.81790897		4.77855135		-0.05893487		0.00895593		-0.06960470		0
C		0.08416730		2.48490876		4.78670575		0.09518334		-0.02976234		-0.08529153		0
16
Lattice="4.906414841768 0.0 0.0 1.3456382409181336 5.198552594276551 0.0 1.0823256756049704 -2.167344972958071 4.59979335264655" Properties=species:S:1:pos:R:3:force:R:3:tags:I:1 config_type=shaiducarbon energy=-4062.0491106892073 unit_cell=conventional pbc="T T T"
C		4.68820891		4.74289875		0.53728334		-0.14893152		-0.16516034		0.37481982		0
C		6.97002790		2.49019884		4.29668584		0.30168756		-0.28691322		0.62901367		0
C		5.36482609		2.14771980		0.82059886		-0.99798295		-0.01948538		0.30114737		0
C		2.14151662		4.71589630		0.54767905		-0.27414074		0.03918313		-0.60164683		0
C		4.51034843		2.50421843		4.50295005		-0.25788519		-0.04760864		0.01929949		0
C		3.72917850		-0.35499138		1.93711146		0.82949585		0.37819465		-0.30158703		0
C		3.89266760		2.15581588		0.85372649		-0.06756530		0.29282985		0.34492353		0
C		5.19984887		-0.35861967		1.90995887		-0.16855343		0.14488846		-0.20713157		0
C		2.10557076		2.36032016		2.85495890		0.26277749		0.08397384		0.01752080		0
C		4.50146831		-0.08961420		4.12973624		-0.15972322		-0.59965140		-0.68195864		0
C		1.96933728		-0.13303597		3.97512824		0.34086478		0.05283672		0.32642005		0
C		4.55252888		2.38172684		3.06022907		-0.34517909		0.17519099		-0.59883353		0
C		3.39195864		2.31365132		2.21333820		0.28209111		-0.14763003		0.55492368		0
C		3.28329627		-0.20315354		3.37615655		-0.41860034		0.01736267		-0.22426387		0
C		5.64446769		-0.19489604		3.23675059		0.58488065		0.02041123		0.43748871		0
C		5.75044625		2.28354850		2.21966747		0.23676433		0.06157771		-0.39013589		0
24
Lattice="5.48477672721 0.0 0.0 0.26794231267766294 5.533218275264718 0.0 0.33952961852120783 -0.2027118630609544 5.332574173029923" Properties=species:S:1:pos:R:3:force:R:3:tags:I:1 config_type=shaiducarbon energy=-6080.105255872064 unit_cell=conventional pbc="T T T"
C		2.90779661		3.22063841		4.24228996		0.48040663		-0.24189626		-1.52802681		0
C		0.61296439		3.83901627		2.46076866		-0.01887757		0.50589579		0.47257350		0
C		3.60683031		5.39004312		3.58450672		-0.16795487		-0.87095364		-1.30332662		0
C		5.10734895		0.05389835		5.31942716		0.31766570		1.35130164		-1.05096185		0
C		0.70218470		1.73425953		1.52824034		-1.14164036		-0.28192785		1.16302373		0
C		4.88719549		3.31633076		2.86762776		0.67601785		-1.41365737		0.45065071		0
C		3.47102834		1.17595917		2.72468844		-0.00273283		-1.17864731		0.00331338		0
C		1.58325046		2.80055826		2.01869840		-0.43163713		0.95752044		0.32202629		0
C		1.39724852		1.18903762		4.15091139		0.15564494		0.66999298		0.12402086		0
C		2.41883151		3.70212063		1.03978203		0.19414209		0.33220375		0.10049293		0
C		3.45029917		3.20956958		0.09236035		-0.37298122		-2.12247146		1.11407966		0
C		5.97378955		4.26485982		5.22821862		-0.30813307		-0.57401774		0.29420282		0
C		3.90512648		4.02392016		3.50585667		-1.50070908		1.45674035		-1.93818982		0
C		3.32214627		0.58512805		0.11219220		-0.31832493		1.00074123		3.14469248		0
C		2.01147824		4.18173912		5.08078892		-1.72710131		0.04597727		-0.83151829		0
C		1.09214739		5.11281562		2.32184969		-0.03698098		-1.89773502		1.52036441		0
C		4.87485584		3.17039072		0.03117437		1.81451092		0.57236323		-0.34505285		0
C		2.37160868		4.98613977		1.69881854		-1.23899757		-0.11072799		2.63980919		0
C		2.33262015		0.04095044		4.63691636		1.60510366		-0.13436081		-0.92494453		0
C		3.02175711		0.45369909		1.49189876		-0.42448843		1.94579052		-0.69367285		0
C		4.81639745		1.85327150		2.62216974		1.02328519		-1.08138317		0.03004465		0
C		0.46619725		0.82701932		2.93394913		0.43536163		1.77759268		-1.10688596		0
C		2.33102627		2.14475612		3.35838967		0.82716283		0.77624750		-0.62015262		0
C		0.15408712		1.75165011		0.10527590		0.16125766		-1.48458825		-1.03656238		0
16
Lattice="8.614119421941 0.0 0.0 0.52794215113192 6.859922914618092 0.0 0.08893216891211889 -0.01772785777035458 2.488532959804535" Properties=species:S:1:pos:R:3:force:R:3:tags:I:1 config_type=shaiducarbon energy=-4068.315097788397 unit_cell=conventional pbc="T T T"
C		0.69096867		2.14711923		0.61934313		-1.01039264		-0.16658319		2.23824602		0
C		1.42835969		2.11310896		1.88328942		0.67005263		-0.05135063		-1.30611447		0
C		1.14780988		5.46882791		1.80446937		0.48753630		-0.18225844		-1.04200824		0
C		3.55264891		2.02522944		0.64815736		0.00564589		0.62499787		-0.58909007		0
C		2.85601905		2.05789935		1.87830960		1.32957581		-0.28024223		0.79741566		0
C		3.23748843		5.44743819		0.51683855		0.44811663		0.49572193		0.29465816		0
C		2.57543909		5.47431769		1.77249893		-0.02289363		-0.24773189		0.19172782		0
C		5.02317816		2.07935884		0.65296576		-2.46897750		-0.62213263		2.09170048		0
C		4.67017844		5.45724795		0.54273518		1.24891484		0.13358614		-0.93319855		0
C		5.46662786		5.45982788		1.76045897		-1.37314035		-0.44360151		0.67539744		0
C		5.74483808		2.05671921		1.93517916		2.03226784		0.13773693		-1.93136019		0
C		6.89415715		5.39190813		1.75599944		0.02601830		0.24724647		1.36701830		0
C		7.86364700		2.14099890		0.71995173		0.48376397		-0.51775013		-1.44062929		0
C		7.20676699		2.07524905		1.96106889		-0.88395572		0.40142819		0.20931418		0
C		9.02481652		5.43806775		0.55148712		-1.54574301		0.11667958		0.64490927		0
C		7.56991673		5.38823765		0.53888984		0.57321041		0.35425355		-1.26798601		0
24
Lattice="3.174112127285 0.0 0.0 -0.46142385405554776 6.0084133325592495 0.0 0.6633830863783103 -0.054264620928064354 7.291884615899703" Properties=species:S:1:pos:R:3:force:R:3:tags:I:1 config_type=shaiducarbon energy=-6087.515479865628 unit_cell=conventional pbc="T T T"
C		1.84947928		1.60810931		1.25798951		1.31697713		3.41454127		1.48553647		0
C		2.65123905		0.36222872		1.25536960		0.07102704		-1.63454230		0.03749288		0
C		0.44685182		2.79376906		2.67098901		-0.43488701		0.44274379		0.57618801		0
C		1.18532964		1.45175953		2.59977907		-0.69637072		-0.56310931		-0.25221796		0
C		0.50229880		0.17600896		2.34672902		-1.19360959		-1.01528648		-2.01700936		0
C		2.51897919		3.03134882		1.53276954		0.71427923		0.14920817		0.54941869		0
C		1.93854931		0.92692771		3.90455849		-2.44214391		-1.88993763		0.65886575		0
C		2.08675939		2.10864934		4.77186844		1.87529827		0.02412314		-0.15466663		0
C		1.73948931		1.54710955		7.21344754		-1.50062655		-1.36800611		-0.58021024		0
C		0.68615163		2.56042897		6.54623775		-1.36534656		0.42778484		-0.27678178		0
C		0.91576055		0.21171994		7.26889738		0.02445738		-0.12467469		0.37865720		0
C		2.71958911		1.58008952		6.09836767		-0.25794741		0.54108419		-0.00906520		0
C		3.28366883		0.20006778		6.00064787		2.34828983		-1.26912321		0.14547699		0
C		0.54210693		4.93621825		0.18342400		0.02606844		0.52526135		-0.63882527		0
C		-0.22105406		3.66888860		0.21956000		-1.85851204		0.29816464		0.10441721		0
C		1.51868950		3.93512868		2.45026919		-0.99662926		-0.47609077		-2.57654869		0
C		1.11630952		5.21780802		1.58990927		-0.21282580		0.60675562		-0.21625051		0
C		2.14025937		4.35374836		3.74892860		0.93020476		0.04598164		-0.49172360		0
C		2.99443897		3.05313878		4.03456854		1.61124037		1.20029627		1.22568156		0
C		2.61579914		5.74336799		3.61905885		1.70280308		1.64553815		-0.57388995		0
C		0.93612661		3.10541894		5.13845808		-0.16384573		-0.17290142		-0.10418709		0
C		1.35253965		4.55012846		4.99669810		-1.05427447		-1.41478891		-0.23717468		0
C		0.47759786		5.87169798		4.66314843		-0.48975079		0.95710983		1.17018348		0
C		2.00487936		4.98438826		6.19580783		2.04612353		-0.35013181		1.79663197		0
16
Lattice="5.264858174488 0.0 0.0 0.09861079360816025 4.080712598173031 0.0 0.61296637782294 1.0475751552687498 5.65710590306188" Properties=species:S:1:pos:R:3:force:R:3:tags:I:1 config_type=shaiducarbon energy=-4065.5598769900184 unit_cell=conventional pbc="T T T"
C		3.91342857		3.28801028		4.33533851		0.13313260		-0.01376158		-0.09416313		0
C		2.62408165		3.28027147		1.52112177		0.13012929		-0.01618382		-0.06386317		0
C		1.29633812		2.62117019		1.52129130		-0.13653083		0.00463133		-0.07612682		0
C		2.54796128		1.24726965		4.31413009		0.13720677		0.00156657		0.08299245		0
C		1.25884918		1.24024738		1.50175762		0.11981196		-0.03514264		0.09745748		0
C		1.31879801		4.66895941		4.31486559		-0.12734504		0.00649950		0.06292703		0
C		5.25655971		3.28028042		1.52092960		0.12671589		-0.01625993		-0.05775242		0
C		5.19584799		0.58041429		1.50158757		-0.13245434		0.02070820		0.08712807		0
C		2.56347787		0.58038428		1.50105055		-0.13608834		0.02198552		0.09662136		0
C		5.18039774		1.24727070		4.31470711		0.13749859		0.00136269		0.07956671		0
C		3.89122667		1.24020947		1.50293958		0.12178888		-0.03292532		0.08771839		0
C		3.95123078		4.66897100		4.31581010		-0.12739723		0.00632852		0.05524739		0
C		2.58561134		2.62827038		4.33357952		-0.12195420		0.02896967		-0.08948783		0
C		1.28098685		3.28798817		4.33435978		0.13318222		-0.01260176		-0.08591322		0
C		3.92873878		2.62115123		1.52249063		-0.13516248		0.00492675		-0.08620196		0
C		5.21805727		2.62826037		4.33429765		-0.12253321		0.02989681		-0.09615059		0
16
Lattice="4.879836926943 0.0 0.0 2.149631604198442 4.3412102866208855 0.0 -2.3400135620661957 -1.0288843370243699 4.466475700535512" Properties=species:S:1:pos:R:3:force:R:3:tags:I:1 config_type=shaiducarbon energy=-4062.5914098680855 unit_cell=conventional pbc="T T T"
C		4.87959781		0.04716704		0.04860415		0.02863800		-0.06317360		0.03215244		0
C		2.34600844		1.69899818		2.28227045		0.00632466		-0.01404312		0.02227066		0
C		5.84726655		3.70192627		0.59145966		-0.00532836		0.01312112		-0.02261698		0
C		4.67862710		3.18330843		2.82425930		-0.02404729		0.06333712		-0.02410720		0
C		3.51455957		2.21780781		0.04916680		0.02200917		-0.06227320		0.02559227		0
C		-1.16854820		-0.47157183		2.28173904		0.00077467		-0.01416653		0.02932140		0
C		1.27094914		-0.47148252		2.28202939		0.01151212		-0.01545388		0.02400615		0
C		5.95460881		2.21775022		0.04881398		0.02486773		-0.06511427		0.03166265		0
C		3.40716851		3.70201948		0.59180808		-0.00419913		0.01501294		-0.02903420		0
C		2.43981745		0.04721535		0.04924292		0.01896319		-0.06454528		0.02640962		0
C		4.78601035		1.69910749		2.28162729		0.00354273		-0.01467175		0.03009916		0
C		4.77237999		1.53131918		0.59133473		-0.00193141		0.01483990		-0.02126587		0
C		3.60405187		1.01258031		2.82452720		-0.02854544		0.06525105		-0.02706500		0
C		1.16373619		1.01263838		2.82484000		-0.01956251		0.06514563		-0.03277671		0
C		2.33258108		1.53140018		0.59209404		-0.01063512		0.01247912		-0.03204883		0
C		2.23864764		3.18319717		2.82492930		-0.02238327		0.06425475		-0.03259930		0
16
Lattice="6.374946105538999 0.0 0.0 0.5425907878807409 5.810125880588244 0.0 -0.4611891010591134 0.23598137998873717 3.185821941728165" Properties=species:S:1:pos:R:3:force:R:3:tags:I:1 config_type=shaiducarbon energy=-4055.644194718611 unit_cell=conventional pbc="T T T"
C		-0.29867260		0.46256481		1.98306915		2.23515503		0.54048281		-0.20078840		0
C		0.70767448		3.45958826		1.48548930		0.18923360		1.60816945		-1.57517882		0
C		0.12587969		4.74069807		2.37951876		-0.80101495		-1.28682064		1.78311850		0
C		1.79028950		2.43268900		2.17209905		-1.08588209		1.94298133		0.05839700		0
C		0.97432445		1.07588945		2.55136882		0.26017707		-1.10143728		0.14904465		0
C		2.46820892		5.67287775		0.21138174		-3.37165884		0.82230447		1.14897958		0
C		1.57407938		4.26527818		0.35796406		1.55603000		0.69043146		-0.52524336		0
C		3.21039863		2.42301884		1.33959930		-0.29346028		-0.22882013		-1.02713336		0
C		2.79035854		3.28031841		0.09629292		-1.30515931		-0.11118950		1.07708505		0
C		3.74959859		5.65862784		0.69419784		1.83995509		3.29373533		0.04903612		0
C		3.90825825		1.11976948		0.97016544		-1.12129161		-3.03347315		-0.11256298		0
C		4.48653790		3.43097878		1.58399943		0.73069625		-1.06776737		0.42668698		0
C		4.12204844		4.27601805		0.41262412		1.95226790		0.12249722		-1.00786319		0
C		4.99315805		4.07880845		2.81281875		-0.28728269		-0.38992018		0.23121049		0
C		5.77194760		2.91187903		0.86952034		-0.39240155		-3.19603513		0.95199590		0
C		5.32769801		1.26311971		1.19895970		-0.10536415		1.39486182		-1.42678389		0
16
Lattice="4.406990289416 0.0 0.0 -0.06681437977783598 4.09902980799161 0.0 0.47537322853872516 -0.46052607825368264 5.322115043984101" Properties=species:S:1:pos:R:3:force:R:3:tags:I:1 config_type=shaiducarbon energy=-4058.3049352366515 unit_cell=conventional pbc="T T T"
C		1.62473921		1.77422917		1.78517922		-0.56365670		-1.21464792		-0.46886159		0
C		1.59982958		0.17971486		1.78908954		0.15570818		3.41937495		2.84554465		0
C		0.14542715		3.76111854		1.89742923		-2.17223135		1.84779105		-1.42326893		0
C		0.12584910		2.27583942		1.80904924		0.88300132		-0.54390907		-0.36334421		0
C		1.81379954		3.60465893		4.51481832		0.01516644		0.98097869		1.58416612		0
C		1.88639941		2.09619947		4.39438850		-1.66312682		-1.40770115		2.02676645		0
C		3.73049877		1.89601943		0.42618373		0.10496742		0.76190896		0.83243566		0