2
Lattice="9.07538555 0.0 0.0 0.0 9.07538555 0.0 0.0 0.0 9.07538555" Properties=species:S:1:pos:R:3:force:R:3:tags:I:1 config_type=shaiducarbon energy=-491.1573694027372 unit_cell=conventional pbc="T T T"
C		0.00000000		0.00000000		0.00000000		0.31574128		0.31574128		0.31574128		0
C		2.21936834		2.21936834		2.21936834		-0.31574128		-0.31574128		-0.31574128		0
2
Lattice="9.07538555 0.0 0.0 0.0 9.07538555 0.0 0.0 0.0 9.07538555" Properties=species:S:1:pos:R:3:force:R:3:tags:I:1 config_type=shaiducarbon energy=-494.46253241481975 unit_cell=conventional pbc="T T T"
C		0.00000000		0.00000000		0.00000000		-25.35270336		-25.35270336		-25.35270336		0
C		0.57256951		0.57256951		0.57256951		25.35270336		25.35270336		25.35270336		0
2
Lattice="9.07538555 0.0 0.0 0.0 9.07538555 0.0 0.0 0.0 9.07538555" Properties=species:S:1:pos:R:3:force:R:3:tags:I:1 config_type=shaiducarbon energy=-499.10313297282585 unit_cell=conventional pbc="T T T"
C		0.00000000		0.00000000		0.00000000		-2.39660565		-2.39660565		-2.39660565		0
C		0.70380541		0.70380541		0.70380541		2.39660565		2.39660565		2.39660565		0
2
Lattice="9.07538555 0.0 0.0 0.0 9.07538555 0.0 0.0 0.0 9.07538555" Properties=species:S:1:pos:R:3:force:R:3:tags:I:1 config_type=shaiducarbon energy=-492.0636724522888 unit_cell=conventional pbc="T T T"
C		0.00000000		0.00000000		0.00000000		1.10434219		1.10434219		1.10434219		0
C		1.74892999		1.74892999		1.74892999		-1.10434219		-1.10434219		-1.10434219		0
2
Lattice="9.07538555 0.0 0.0 0.0 9.07538555 0.0 0.0 0.0 9.07538555" Properties=species:S:1:pos:R:3:force:R:3:tags:I:1 config_type=shaiducarbon energy=-410.49468616679076 unit_cell=conventional pbc="T T T"
C		0.00000000		0.00000000		0.00000000		-264.72651608		-264.72651608		-264.72651608		0
C		0.32597303		0.32597303		0.32597303		264.72651608		264.72651608		264.72651608		0
2
Lattice="9.07538555 0.0 0.0 0.0 9.07538555 0.0 0.0 0.0 9.07538555" Properties=species:S:1:pos:R:3:force:R:3:tags:I:1 config_type=shaiducarbon energy=-491.23154639722213 unit_cell=conventional pbc="T T T"
C		0.00000000		0.00000000		0.00000000		0.38620884		0.38620884		0.38620884		0
C		2.14845862		2.14845862		2.14845862		-0.38620884		-0.38620884		-0.38620884		0
2
Lattice="9.07538555 0.0 0.0 0.0 9.07538555 0.0 0.0 0.0 9.07538555" Properties=species:S:1:pos:R:3:force:R:3:tags:I:1 config_type=shaiducarbon energy=-495.82938444669736 unit_cell=conventional pbc="T T T"
C		0.00000000		0.00000000		0.00000000		2.96648963		2.96648963		2.96648963		0
C		1.12132606		1.12132606		1.12132606		-2.96648963		-2.96648963		-2.96648963		0
2
Lattice="9.07538555 0.0 0.0 0.0 9.07538555 0.0 0.0 0.0 9.07538555" Properties=species:S:1:pos:R:3:force:R:3:tags:I:1 config_type=shaiducarbon energy=-492.94867776070055 unit_cell=conventional pbc="T T T"
C		0.00000000		0.00000000		0.00000000		1.67888022		1.67888022		1.67888022		0
C		1.53567165		1.53567165		1.53567165		-1.67888022		-1.67888022		-1.67888022		0
2
Lattice="9.07538555 0.0 0.0 0.0 9.07538555 0.0 0.0 0.0 9.07538555" Properties=species:S:1:pos:R:3:force:R:3:tags:I:1 config_type=shaiducarbon energy=-491.0160937554046 unit_cell=conventional pbc="T T T"
C		0.00000000		0.00000000		0.00000000		0.16597790		0.16597790		0.16597790		0
C		2.42045560		2.42045560		2.42045560		-0.16597790		-0.16597790		-0.16597790		0
2
Lattice="9.07538555 0.0 0.0 0.0 9.07538555 0.0 0.0 0.0 9.07538555" Properties=species:S:1:pos:R:3:force:R:3:tags:I:1 config_type=shaiducarbon energy=-483.0331562623894 unit_cell=conventional pbc="T T T"
C		0.00000000		0.00000000		0.00000000		-67.85037373		-67.85037373		-67.85037373		0
C		0.48684284		0.48684284		0.48684284		67.85037373		67.85037373		67.85037373		0
2
Lattice="9.07538555 0.0 0.0 0.0 9.07538555 0.0 0.0 0.0 9.07538555" Properties=species:S:1:pos:R:3:force:R:3:tags:I:1 config_type=shaiducarbon energy=-490.89114930421033 unit_cell=conventional pbc="T T T"
C		0.00000000		0.00000000		0.00000000		0.00335452		0.00335452		0.00335452		0
C		3.31423555		3.31423555		3.31423555		-0.00335452		-0.00335452		-0.00335452		0
2
Lattice="9.07538555 0.0 0.0 0.0 9.07538555 0.0 0.0 0.0 9.07538555" Properties=species:S:1:pos:R:3:force:R:3:tags:I:1 config_type=shaiducarbon energy=-491.0442018667108 unit_cell=conventional pbc="T T T"
C		0.00000000		0.00000000		0.00000000		0.19928909		0.19928909		0.19928909		0
C		2.36859625		2.36859625		2.36859625		-0.19928909		-0.19928909		-0.19928909		0
2
Lattice="9.07538555 0.0 0.0 0.0 9.07538555 0.0 0.0 0.0 9.07538555" Properties=species:S:1:pos:R:3:force:R:3:tags:I:1 config_type=shaiducarbon energy=-490.907631283408 unit_cell=conventional pbc="T T T"
C		0.00000000		0.00000000		0.00000000		0.02787952		0.02787952		0.02787952		0
C		2.87872288		2.87872288		2.87872288		-0.02787952		-0.02787952		-0.02787952		0
2
Lattice="9.07538555 0.0 0.0 0.0 9.07538555 0.0 0.0 0.0 9.07538555" Properties=species:S:1:pos:R:3:force:R:3:tags:I:1 config_type=shaiducarbon energy=-491.1807635267575 unit_cell=conventional pbc="T T T"
C		0.00000000		0.00000000		0.00000000		0.33721612		0.33721612		0.33721612		0
C		2.19555537		2.19555537		2.19555537		-0.33721612		-0.33721612		-0.33721612		0
2
Lattice="9.07538555 0.0 0.0 0.0 9.07538555 0.0 0.0 0.0 9.07538555" Properties=species:S:1:pos:R:3:force:R:3:tags:I:1 config_type=shaiducarbon energy=-496.15641810265504 unit_cell=conventional pbc="T T T"
C		0.00000000		0.00000000		0.00000000		3.09437613		3.09437613		3.09437613		0
C		1.08534203		1.08534203		1.08534203		-3.09437613		-3.09437613		-3.09437613		0
2
Lattice="9.07538555 0.0 0.0 0.0 9.07538555 0.0 0.0 0.0 9.07538555" Properties=species:S:1:pos:R:3:force:R:3:tags:I:1 config_type=shaiducarbon energy=-493.95155056579944 unit_cell=conventional pbc="T T T"
C		0.00000000		0.00000000		0.00000000		2.20641487		2.20641487		2.20641487		0
C		1.36315995		1.36315995		1.36315995		-2.20641487		-2.20641487		-2.20641487		0
2
Lattice="9.07538555 0.0 0.0 0.0 9.07538555 0.0 0.0 0.0 9.07538555" Properties=species:S:1:pos:R:3:force:R:3:tags:I:1 config_type=shaiducarbon energy=-418.59090984551193 unit_cell=conventional pbc="T T T"
C		0.00000000		0.00000000		0.00000000		-245.45564259		-245.45564259		-245.45564259		0
C		0.33655657		0.33655657		0.33655657		245.45564259		245.45564259		245.45564259		0
2
Lattice="9.07538555 0.0 0.0 0.0 9.07538555 0.0 0.0 0.0 9.07538555" Properties=species:S:1:pos:R:3:force:R:3:tags:I:1 config_type=shaiducarbon energy=-492.4030657918838 unit_cell=conventional pbc="T T T"
C		0.00000000		0.00000000		0.00000000		1.34149887		1.34149887		1.34149887		0
C		1.65632401		1.65632401		1.65632401		-1.34149887		-1.34149887		-1.34149887		0
2
Lattice="9.07538555 0.0 0.0 0.0 9.07538555 0.0 0.0 0.0 9.07538555" Properties=species:S:1:pos:R:3:force:R:3:tags:I:1 config_type=shaiducarbon energy=-466.786603267401 unit_cell=conventional pbc="T T T"
C		0.00000000		0.00000000		0.00000000		-118.70962189		-118.70962189		-118.70962189		0
C		0.42757502		0.42757502		0.42757502		118.70962189		118.70962189		118.70962189		0
2
Lattice="9.07538555 0.0 0.0 0.0 9.07538555 0.0 0.0 0.0 9.07538555" Properties=species:S:1:pos:R:3:force:R:3:tags:I:1 config_type=shaiducarbon energy=-490.8896169882345 unit_cell=conventional pbc="T T T"
C		0.00000000		0.00000000		0.00000000		0.00115556		0.00115556		0.00115556		0
C		3.46081758		3.46081758		3.46081758		-0.00115556		-0.00115556		-0.00115556		0
2
Lattice="9.07538555 0.0 0.0 0.0 9.07538555 0.0 0.0 0.0 9.07538555" Properties=species:S:1:pos:R:3:force:R:3:tags:I:1 config_type=shaiducarbon energy=-490.88787762737815 unit_cell=conventional pbc="T T T"
C		0.00000000		0.00000000		0.00000000		-0.00005714		-0.00005714		-0.00005714		0
C		3.89897614		3.89897614		3.89897614		0.00005714		0.00005714		0.00005714		0
2
Lattice="9.07538555 0.0 0.0 0.0 9.07538555 0.0 0.0 0.0 9.07538555" Properties=species:S:1:pos:R:3:force:R:3:tags:I:1 config_type=shaiducarbon energy=-490.90309162255573 unit_cell=conventional pbc="T T T"
C		0.00000000		0.00000000		0.00000000		0.02030474		0.02030474		0.02030474		0
C		2.94169494		2.94169494		2.94169494		-0.02030474		-0.02030474		-0.02030474		0
2
Lattice="9.07538555 0.0 0.0 0.0 9.07538555 0.0 0.0 0.0 9.07538555" Properties=species:S:1:pos:R:3:force:R:3:tags:I:1 config_type=shaiducarbon energy=-491.58300997652174 unit_cell=conventional pbc="T T T"
C		0.00000000		0.00000000		0.00000000		0.70650777		0.70650777		0.70650777		0
C		1.92779181		1.92779181		1.92779181		-0.70650777		-0.70650777		-0.70650777		0
2
Lattice="9.07538555 0.0 0.0 0.0 9.07538555 0.0 0.0 0.0 9.07538555" Properties=species:S:1:pos:R:3:force:R:3:tags:I:1 config_type=shaiducarbon energy=-498.96227110761873 unit_cell=conventional pbc="T T T"
C		0.00000000		0.00000000		0.00000000		-3.76223472		-3.76223472		-3.76223472		0
C		0.68845928		0.68845928		0.68845928		3.76223472		3.76223472		3.76223472		0
2
Lattice="9.07538555 0.0 0.0 0.0 9.07538555 0.0 0.0 0.0 9.07538555" Properties=species:S:1:pos:R:3:force:R:3:tags:I:1 config_type=shaiducarbon energy=-490.88990650486113 unit_cell=conventional pbc="T T T"
C		0.00000000		0.00000000		0.00000000		0.00447280		0.00447280		0.00447280		0
C		3.42377519		3.42377519		3.42377519		-0.00447280		-0.00447280		-0.00447280		0
2
Lattice="9.07538555 0.0 0.0 0.0 9.07538555 0.0 0.0 0.0 9.07538555" Properties=species:S:1:pos:R:3:force:R:3:tags:I:1 config_type=shaiducarbon energy=-498.6777269185349 unit_cell=conventional pbc="T T T"
C		0.00000000		0.00000000		0.00000000		3.05545210		3.05545210		3.05545210		0
C		0.83715801		0.83715801		0.83715801		-3.05545210		-3.05545210		-3.05545210		0
2
Lattice="9.07538555 0.0 0.0 0.0 9.07538555 0.0 0.0 0.0 9.07538555" Properties=species:S:1:pos:R:3:force:R:3:tags:I:1 config_type=shaiducarbon energy=-494.9316568543481 unit_cell=conventional pbc="T T T"
C		0.00000000		0.00000000		0.00000000		-23.90466850		-23.90466850		-23.90466850		0
C		0.57891964		0.57891964		0.57891964		23.90466850		23.90466850		23.90466850		0
2
Lattice="9.07538555 0.0 0.0 0.0 9.07538555 0.0 0.0 0.0 9.07538555" Properties=species:S:1:pos:R:3:force:R:3:tags:I:1 config_type=shaiducarbon energy=-491.8296833849169 unit_cell=conventional pbc="T T T"
C		0.00000000		0.00000000		0.00000000		0.91954158		0.91954158		0.91954158		0
C		1.82618983		1.82618983		1.82618983		-0.91954158		-0.91954158		-0.91954158		0
2
Lattice="9.07538555 0.0 0.0 0.0 9.07538555 0.0 0.0 0.0 9.07538555" Properties=species:S:1:pos:R:3:force:R:3:tags:I:1 config_type=shaiducarbon energy=-485.07766196872086 unit_cell=conventional pbc="T T T"
C		0.00000000		0.00000000		0.00000000		-61.02940859		-61.02940859		-61.02940859		0
C		0.49742638		0.49742638		0.49742638		61.02940859		61.02940859		61.02940859		0
2
Lattice="9.07538555 0.0 0.0 0.0 9.07538555 0.0 0.0 0.0 9.07538555" Properties=species:S:1:pos:R:3:force:R:3:tags:I:1 config_type=shaiducarbon energy=-478.37689765134445 unit_cell=conventional pbc="T T T"
C		0.00000000		0.00000000		0.00000000		-82.98261738		-82.98261738		-82.98261738		0
C		0.46620494		0.46620494		0.46620494		82.98261738		82.98261738		82.98261738		0
2
Lattice="9.07538555 0.0 0.0 0.0 9.07538555 0.0 0.0 0.0 9.07538555" Properties=species:S:1:pos:R:3:force:R:3:tags:I:1 config_type=shaiducarbon energy=-493.56951041340636 unit_cell=conventional pbc="T T T"
C		0.00000000		0.00000000		0.00000000		2.01432465		2.01432465		2.01432465		0
C		1.42348613		1.42348613		1.42348613		-2.01432465		-2.01432465		-2.01432465		0
2
Lattice="9.07538555 0.0 0.0 0.0 9.07538555 0.0 0.0 0.0 9.07538555" Properties=species:S:1:pos:R:3:force:R:3:tags:I:1 config_type=shaiducarbon energy=-491.4593635596368 unit_cell=conventional pbc="T T T"
C		0.00000000		0.00000000		0.00000000		0.59640366		0.59640366		0.59640366		0
C		1.99129305		1.99129305		1.99129305		-0.59640366		-0.59640366		-0.59640366		0
2
Lattice="9.07538555 0.0 0.0 0.0 9.07538555 0.0 0.0 0.0 9.07538555" Properties=species:S:1:pos:R:3:force:R:3:tags:I:1 config_type=shaiducarbon energy=-490.88800308003755 unit_cell=conventional pbc="T T T"
C		0.00000000		0.00000000		0.00000000		0.00136275		0.00136275		0.00136275		0
C		3.94131030		3.94131030		3.94131030		-0.00136275		-0.00136275		-0.00136275		0
2
Lattice="9.07538555 0.0 0.0 0.0 9.07538555 0.0 0.0 0.0 9.07538555" Properties=species:S:1:pos:R:3:force:R:3:tags:I:1 config_type=shaiducarbon energy=-490.88780487887635 unit_cell=conventional pbc="T T T"
C		0.00000000		0.00000000		0.00000000		0.00033056		0.00033056		0.00033056		0
C		4.16091875		4.16091875		4.16091875		-0.00033056		-0.00033056		-0.00033056		0
2
Lattice="9.07538555 0.0 0.0 0.0 9.07538555 0.0 0.0 0.0 9.07538555" Properties=species:S:1:pos:R:3:force:R:3:tags:I:1 config_type=shaiducarbon energy=-490.88768933520265 unit_cell=conventional pbc="T T T"
C		0.00000000		0.00000000		0.00000000		0.00163049		0.00163049		0.00163049		0
C		4.25193720		4.25193720		4.25193720		-0.00163049		-0.00163049		-0.00163049		0
2
Lattice="9.07538555 0.0 0.0 0.0 9.07538555 0.0 0.0 0.0 9.07538555" Properties=species:S:1:pos:R:3:force:R:3:tags:I:1 config_type=shaiducarbon energy=-490.8893436301646 unit_cell=conventional pbc="T T T"
C		0.00000000		0.00000000		0.00000000		0.00370965		0.00370965		0.00370965		0
C		3.49838915		3.49838915		3.49838915		-0.00370965		-0.00370965		-0.00370965		0
2
Lattice="9.07538555 0.0 0.0 0.0 9.07538555 0.0 0.0 0.0 9.07538555" Properties=species:S:1:pos:R:3:force:R:3:tags:I:1 config_type=shaiducarbon energy=-474.4153155932997 unit_cell=conventional pbc="T T T"
C		0.00000000		0.00000000		0.00000000		-95.50214110		-95.50214110		-95.50214110		0
C		0.45138798		0.45138798		0.45138798		95.50214110		95.50214110		95.50214110		0
2
Lattice="9.07538555 0.0 0.0 0.0 9.07538555 0.0 0.0 0.0 9.07538555" Properties=species:S:1:pos:R:3:force:R:3:tags:I:1 config_type=shaiducarbon energy=-490.94106424939946 unit_cell=conventional pbc="T T T"
C		0.00000000		0.00000000		0.00000000		0.07225417		0.07225417		0.07225417		0
C		2.63953488		2.63953488		2.63953488		-0.07225417		-0.07225417		-0.07225417		0
2
Lattice="9.07538555 0.0 0.0 0.0 9.07538555 0.0 0.0 0.0 9.07538555" Properties=species:S:1:pos:R:3:force:R:3:tags:I:1 config_type=shaiducarbon energy=-496.81587487151546 unit_cell=conventional pbc="T T T"
C		0.00000000		0.00000000		0.00000000		3.34874039		3.34874039		3.34874039		0
C		1.01707819		1.01707819		1.01707819		-3.34874039		-3.34874039		-3.34874039		0
2
Lattice="9.07538555 0.0 0.0 0.0 9.07538555 0.0 0.0 0.0 9.07538555" Properties=species:S:1:pos:R:3:force:R:3:tags:I:1 config_type=shaiducarbon energy=-392.84373531146065 unit_cell=conventional pbc="T T T"
C		0.00000000		0.00000000		0.00000000		-306.58161153		-306.58161153		-306.58161153		0
C		0.30533513		0.30533513		0.30533513		306.58161153		306.58161153		306.58161153		0
2
Lattice="9.07538555 0.0 0.0 0.0 9.07538555 0.0 0.0 0.0 9.07538555" Properties=species:S:1:pos:R:3:force:R:3:tags:I:1 config_type=shaiducarbon energy=-492.47671012603763 unit_cell=conventional pbc="T T T"
C		0.00000000		0.00000000		0.00000000		1.38986777		1.38986777		1.38986777		0
C		1.63833199		1.63833199		1.63833199		-1.38986777		-1.38986777		-1.38986777		0
2
Lattice="9.07538555 0.0 0.0 0.0 9.07538555 0.0 0.0 0.0 9.07538555" Properties=species:S:1:pos:R:3:force:R:3:tags:I:1 config_type=shaiducarbon energy=-465.05426068514834 unit_cell=conventional pbc="T T T"
C		0.00000000		0.00000000		0.00000000		-123.80866628		-123.80866628		-123.80866628		0
C		0.42281242		0.42281242		0.42281242		123.80866628		123.80866628		123.80866628		0
2
Lattice="9.07538555 0.0 0.0 0.0 9.07538555 0.0 0.0 0.0 9.07538555" Properties=species:S:1:pos:R:3:force:R:3:tags:I:1 config_type=shaiducarbon energy=-490.88854421918415 unit_cell=conventional pbc="T T T"
C		0.00000000		0.00000000		0.00000000		0.00278355		0.00278355		0.00278355		0
C		3.65343801		3.65343801		3.65343801		-0.00278355		-0.00278355		-0.00278355		0
2
Lattice="9.07538555 0.0 0.0 0.0 9.07538555 0.0 0.0 0.0 9.07538555" Properties=species:S:1:pos:R:3:force:R:3:tags:I:1 config_type=shaiducarbon energy=-496.37558159763256 unit_cell=conventional pbc="T T T"
C		0.00000000		0.00000000		0.00000000		3.17889330		3.17889330		3.17889330		0
C		1.06205824		1.06205824		1.06205824		-3.17889330		-3.17889330		-3.17889330		0
2
Lattice="9.07538555 0.0 0.0 0.0 9.07538555 0.0 0.0 0.0 9.07538555" Properties=species:S:1:pos:R:3:force:R:3:tags:I:1 config_type=shaiducarbon energy=-494.35312559557065 unit_cell=conventional pbc="T T T"
C		0.00000000		0.00000000		0.00000000		2.39477667		2.39477667		2.39477667		0
C		1.30495048		1.30495048		1.30495048		-2.39477667		-2.39477667		-2.39477667		0
2
Lattice="9.07538555 0.0 0.0 0.0 9.07538555 0.0 0.0 0.0 9.07538555" Properties=species:S:1:pos:R:3:force:R:3:tags:I:1 config_type=shaiducarbon energy=-499.1861664135011 unit_cell=conventional pbc="T T T"
C		0.00000000		0.00000000		0.00000000		-1.24314678		-1.24314678		-1.24314678		0
C		0.71915154		0.71915154		0.71915154		1.24314678		1.24314678		1.24314678		0
2
Lattice="9.07538555 0.0 0.0 0.0 9.07538555 0.0 0.0 0.0 9.07538555" Properties=species:S:1:pos:R:3:force:R:3:tags:I:1 config_type=shaiducarbon energy=-491.62806044746503 unit_cell=conventional pbc="T T T"
C		0.00000000		0.00000000		0.00000000		0.74741778		0.74741778		0.74741778		0
C		1.90715391		1.90715391		1.90715391		-0.74741778		-0.74741778		-0.74741778		0
2
Lattice="9.07538555 0.0 0.0 0.0 9.07538555 0.0 0.0 0.0 9.07538555" Properties=species:S:1:pos:R:3:force:R:3:tags:I:1 config_type=shaiducarbon energy=-493.4778744402353 unit_cell=conventional pbc="T T T"
C		0.00000000		0.00000000		0.00000000		1.96781620		1.96781620		1.96781620		0
C		1.43883226		1.43883226		1.43883226		-1.96781620		-1.96781620		-1.96781620		0
2
Lattice="9.07538555 0.0 0.0 0.0 9.07538555 0.0 0.0 0.0 9.07538555" Properties=species:S:1:pos:R:3:force:R:3:tags:I:1 config_type=shaiducarbon energy=-495.7909052963111 unit_cell=conventional pbc="T T T"
C		0.00000000		0.00000000		0.00000000		-21.23339639		-21.23339639		-21.23339639		0
C		0.59161989		0.59161989		0.59161989		21.23339639		21.23339639		21.23339639		0
2
Lattice="9.07538555 0.0 0.0 0.0 9.07538555 0.0 0.0 0.0 9.07538555" Properties=species:S:1:pos:R:3:force:R:3:tags:I:1 config_type=shaiducarbon energy=-416.22599268220506 unit_cell=conventional pbc="T T T"
C		0.00000000		0.00000000		0.00000000		-251.11241815		-251.11241815		-251.11241815		0
C		0.33338151		0.33338151		0.33338151		251.11241815		251.11241815		251.11241815		0
2
Lattice="9.07538555 0.0 0.0 0.0 9.07538555 0.0 0.0 0.0 9.07538555" Properties=species:S:1:pos:R:3:force:R:3:tags:I:1 config_type=shaiducarbon energy=-490.8891244704162 unit_cell=conventional pbc="T T T"
C		0.00000000		0.00000000		0.00000000		0.00046708		0.00046708		0.00046708		0
C		3.53648989		3.53648989		3.53648989		-0.00046708		-0.00046708		-0.00046708		0
2
Lattice="9.07538555 0.0 0.0 0.0 9.07538555 0.0 0.0 0.0 9.07538555" Properties=species:S:1:pos:R:3:force:R:3:tags:I:1 config_type=shaiducarbon energy=-493.20697628295517 unit_cell=conventional pbc="T T T"
C		0.00000000		0.00000000		0.00000000		1.82208062		1.82208062		1.82208062		0
C		1.48645819		1.48645819		1.48645819		-1.82208062		-1.82208062		-1.82208062		0
2
Lattice="9.07538555 0.0 0.0 0.0 9.07538555 0.0 0.0 0.0 9.07538555" Properties=species:S:1:pos:R:3:force:R:3:tags:I:1 config_type=shaiducarbon energy=-491.13522591024986 unit_cell=conventional pbc="T T T"
C		0.00000000		0.00000000		0.00000000		0.29155418		0.29155418		0.29155418		0
C		2.24371048		2.24371048		2.24371048		-0.29155418		-0.29155418		-0.29155418		0
2
Lattice="9.07538555 0.0 0.0 0.0 9.07538555 0.0 0.0 0.0 9.07538555" Properties=species:S:1:pos:R:3:force:R:3:tags:I:1 config_type=shaiducarbon energy=-499.0313339918071 unit_cell=conventional pbc="T T T"
C		0.00000000		0.00000000		0.00000000		2.14822900		2.14822900		2.14822900		0
C		0.79270715		0.79270715		0.79270715		-2.14822900		-2.14822900		-2.14822900		0
2
Lattice="9.07538555 0.0 0.0 0.0 9.07538555 0.0 0.0 0.0 9.07538555" Properties=species:S:1:pos:R:3:force:R:3:tags:I:1 config_type=shaiducarbon energy=-491.9428067326973 unit_cell=conventional pbc="T T T"
C		0.00000000		0.00000000		0.00000000		1.00939404		1.00939404		1.00939404		0
C		1.78703073		1.78703073		1.78703073		-1.00939404		-1.00939404		-1.00939404		0
2
Lattice="9.07538555 0.0 0.0 0.0 9.07538555 0.0 0.0 0.0 9.07538555" Properties=species:S:1:pos:R:3:force:R:3:tags:I:1 config_type=shaiducarbon energy=-498.9701083730619 unit_cell=conventional pbc="T T T"
C		0.00000000		0.00000000		0.00000000		2.38358978		2.38358978		2.38358978		0
C		0.80170316		0.80170316		0.80170316		-2.38358978		-2.38358978		-2.38358978		0
2
Lattice="9.07538555 0.0 0.0 0.0 9.07538555 0.0 0.0 0.0 9.07538555" Properties=species:S:1:pos:R:3:force:R:3:tags:I:1 config_type=shaiducarbon energy=-496.4822145781843 unit_cell=conventional pbc="T T T"
C		0.00000000		0.00000000		0.00000000		3.21983284		3.21983284		3.21983284		0
C		1.05094552		1.05094552		1.05094552		-3.21983284		-3.21983284		-3.21983284		0
2
Lattice="9.07538555 0.0 0.0 0.0 9.07538555 0.0 0.0 0.0 9.07538555" Properties=species:S:1:pos:R:3:force:R:3:tags:I:1 config_type=shaiducarbon energy=-497.4792433933063 unit_cell=conventional pbc="T T T"
C		0.00000000		0.00000000		0.00000000		3.53946064		3.53946064		3.53946064		0
C		0.95304778		0.95304778		0.95304778		-3.53946064		-3.53946064		-3.53946064		0
2
Lattice="9.07538555 0.0 0.0 0.0 9.07538555 0.0 0.0 0.0 9.07538555" Properties=species:S:1:pos:R:3:force:R:3:tags:I:1 config_type=shaiducarbon energy=-495.721826810599 unit_cell=conventional pbc="T T T"
C		0.00000000		0.00000000		0.00000000		2.92671495		2.92671495		2.92671495		0
C		1.13349713		1.13349713		1.13349713		-2.92671495		-2.92671495		-2.92671495		0
2
Lattice="9.07538555 0.0 0.0 0.0 9.07538555 0.0 0.0 0.0 9.07538555" Properties=species:S:1:pos:R:3:force:R:3:tags:I:1 config_type=shaiducarbon energy=-491.77691807888834 unit_cell=conventional pbc="T T T"
C		0.00000000		0.00000000		0.00000000		0.87519613		0.87519613		0.87519613		0
C		1.84576938		1.84576938		1.84576938		-0.87519613		-0.87519613		-0.87519613		0
2
Lattice="9.07538555 0.0 0.0 0.0 9.07538555 0.0 0.0 0.0 9.07538555" Properties=species:S:1:pos:R:3:force:R:3:tags:I:1 config_type=shaiducarbon energy=-491.0600427154303 unit_cell=conventional pbc="T T T"
C		0.00000000		0.00000000		0.00000000		0.21493011		0.21493011		0.21493011		0
C		2.34319576		2.34319576		2.34319576		-0.21493011		-0.21493011		-0.21493011		0
2
Lattice="9.07538555 0.0 0.0 0.0 9.07538555 0.0 0.0 0.0 9.07538555" Properties=species:S:1:pos:R:3:force:R:3:tags:I:1 config_type=shaiducarbon energy=-496.70492412262433 unit_cell=conventional pbc="T T T"
C		0.00000000		0.00000000		0.00000000		3.30643192		3.30643192		3.30643192		0
C		1.02819091		1.02819091		1.02819091		-3.30643192		-3.30643192		-3.30643192		0
2
Lattice="9.07538555 0.0 0.0 0.0 9.07538555 0.0 0.0 0.0 9.07538555" Properties=species:S:1:pos:R:3:force:R:3:tags:I:1 config_type=shaiducarbon energy=-496.044222855322 unit_cell=conventional pbc="T T T"
C		0.00000000		0.00000000		0.00000000		3.04980837		3.04980837		3.04980837		0
C		1.09751310		1.09751310		1.09751310		-3.04980837		-3.04980837		-3.04980837		0
2
Lattice="9.07538555 0.0 0.0 0.0 9.07538555 0.0 0.0 0.0 9.07538555" Properties=species:S:1:pos:R:3:force:R:3:tags:I:1 config_type=shaiducarbon energy=-490.8875968267326 unit_cell=conventional pbc="T T T"
C		0.00000000		0.00000000		0.00000000		-0.00098513		-0.00098513		-0.00098513		0
C		4.20642797		4.20642797		4.20642797		0.00098513		0.00098513		0.00098513		0
2
Lattice="9.07538555 0.0 0.0 0.0 9.07538555 0.0 0.0 0.0 9.07538555" Properties=species:S:1:pos:R:3:force:R:3:tags:I:1 config_type=shaiducarbon energy=-490.92497918569507 unit_cell=conventional pbc="T T T"
C		0.00000000		0.00000000		0.00000000		0.05176104		0.05176104		0.05176104		0
C		2.72684908		2.72684908		2.72684908		-0.05176104		-0.05176104		-0.05176104		0
2
Lattice="9.07538555 0.0 0.0 0.0 9.07538555 0.0 0.0 0.0 9.07538555" Properties=species:S:1:pos:R:3:force:R:3:tags:I:1 config_type=shaiducarbon energy=-493.035255852771 unit_cell=conventional pbc="T T T"
C		0.00000000		0.00000000		0.00000000		1.72752610		1.72752610		1.72752610		0
C		1.51873799		1.51873799		1.51873799		-1.72752610		-1.72752610		-1.72752610		0
2
Lattice="9.07538555 0.0 0.0 0.0 9.07538555 0.0 0.0 0.0 9.07538555" Properties=species:S:1:pos:R:3:force:R:3:tags:I:1 config_type=shaiducarbon energy=-499.2209076401313 unit_cell=conventional pbc="T T T"
C		0.00000000		0.00000000		0.00000000		-0.24250378		-0.24250378		-0.24250378		0
C		0.73502685		0.73502685		0.73502685		0.24250378		0.24250378		0.24250378		0
2
Lattice="9.07538555 0.0 0.0 0.0 9.07538555 0.0 0.0 0.0 9.07538555" Properties=species:S:1:pos:R:3:force:R:3:tags:I:1 config_type=shaiducarbon energy=-443.29382901663644 unit_cell=conventional pbc="T T T"
C		0.00000000		0.00000000		0.00000000		-183.66964910		-183.66964910		-183.66964910		0
C		0.37518649		0.37518649		0.37518649		183.66964910		183.66964910		183.66964910		0
2
Lattice="9.07538555 0.0 0.0 0.0 9.07538555 0.0 0.0 0.0 9.07538555" Properties=species:S:1:pos:R:3:force:R:3:tags:I:1 config_type=shaiducarbon energy=-490.8994518628134 unit_cell=conventional pbc="T T T"
C		0.00000000		0.00000000		0.00000000		0.01462515		0.01462515		0.01462515		0
C		3.00625454		3.00625454		3.00625454		-0.01462515		-0.01462515		-0.01462515		0
2
Lattice="9.07538555 0.0 0.0 0.0 9.07538555 0.0 0.0 0.0 9.07538555" Properties=species:S:1:pos:R:3:force:R:3:tags:I:1 config_type=shaiducarbon energy=-468.447170313299 unit_cell=conventional pbc="T T T"
C		0.00000000		0.00000000		0.00000000		-113.76236389		-113.76236389		-113.76236389		0
C		0.43233761		0.43233761		0.43233761		113.76236389		113.76236389		113.76236389		0
2
Lattice="9.07538555 0.0 0.0 0.0 9.07538555 0.0 0.0 0.0 9.07538555" Properties=species:S:1:pos:R:3:force:R:3:tags:I:1 config_type=shaiducarbon energy=-491.4217337400772 unit_cell=conventional pbc="T T T"
C		0.00000000		0.00000000		0.00000000		0.56013659		0.56013659		0.56013659		0
C		2.01298931		2.01298931		2.01298931		-0.56013659		-0.56013659		-0.56013659		0
2
Lattice="9.07538555 0.0 0.0 0.0 9.07538555 0.0 0.0 0.0 9.07538555" Properties=species:S:1:pos:R:3:force:R:3:tags:I:1 config_type=shaiducarbon energy=-491.2595022349048 unit_cell=conventional pbc="T T T"
C		0.00000000		0.00000000		0.00000000		0.41217575		0.41217575		0.41217575		0
C		2.12517483		2.12517483		2.12517483		-0.41217575		-0.41217575		-0.41217575		0
2
Lattice="9.07538555 0.0 0.0 0.0 9.07538555 0.0 0.0 0.0 9.07538555" Properties=species:S:1:pos:R:3:force:R:3:tags:I:1 config_type=shaiducarbon energy=-498.14796717558573 unit_cell=conventional pbc="T T T"
C		0.00000000		0.00000000		0.00000000		-9.19185205		-9.19185205		-9.19185205		0
C		0.64506676		0.64506676		0.64506676		9.19185205		9.19185205		9.19185205		0
2
Lattice="9.07538555 0.0 0.0 0.0 9.07538555 0.0 0.0 0.0 9.07538555" Properties=species:S:1:pos:R:3:force:R:3:tags:I:1 config_type=shaiducarbon energy=-490.9102366968345 unit_cell=conventional pbc="T T T"
C		0.00000000		0.00000000		0.00000000		0.02999143		0.02999143		0.02999143		0
C		2.84750144		2.84750144		2.84750144		-0.02999143		-0.02999143		-0.02999143		0
2
Lattice="9.07538555 0.0 0.0 0.0 9.07538555 0.0 0.0 0.0 9.07538555" Properties=species:S:1:pos:R:3:force:R:3:tags:I:1 config_type=shaiducarbon energy=-490.9549175016132 unit_cell=conventional pbc="T T T"
C		0.00000000		0.00000000		0.00000000		0.09230216		0.09230216		0.09230216		0
C		2.58291294		2.58291294		2.58291294		-0.09230216		-0.09230216		-0.09230216		0
2
Lattice="9.07538555 0.0 0.0 0.0 9.07538555 0.0 0.0 0.0 9.07538555" Properties=species:S:1:pos:R:3:force:R:3:tags:I:1 config_type=shaiducarbon energy=-498.7612754368029 unit_cell=conventional pbc="T T T"
C		0.00000000		0.00000000		0.00000000		-5.32233957		-5.32233957		-5.32233957		0
C		0.67364232		0.67364232		0.67364232		5.32233957		5.32233957		5.32233957		0
2
Lattice="9.07538555 0.0 0.0 0.0 9.07538555 0.0 0.0 0.0 9.07538555" Properties=species:S:1:pos:R:3:force:R:3:tags:I:1 config_type=shaiducarbon energy=-490.96284139906413 unit_cell=conventional pbc="T T T"
C		0.00000000		0.00000000		0.00000000		0.10001560		0.10001560		0.10001560		0
C		2.55539573		2.55539573		2.55539573		-0.10001560		-0.10001560		-0.10001560		0
2
Lattice="9.07538555 0.0 0.0 0.0 9.07538555 0.0 0.0 0.0 9.07538555" Properties=species:S:1:pos:R:3:force:R:3:tags:I:1 config_type=shaiducarbon energy=-497.7203690198056 unit_cell=conventional pbc="T T T"
C		0.00000000		0.00000000		0.00000000		-11.58695255		-11.58695255		-11.58695255		0
C		0.63130816		0.63130816		0.63130816		11.58695255		11.58695255		11.58695255		0
2
Lattice="9.07538555 0.0 0.0 0.0 9.07538555 0.0 0.0 0.0 9.07538555" Properties=species:S:1:pos:R:3:force:R:3:tags:I:1 config_type=shaiducarbon energy=-423.9029350609098 unit_cell=conventional pbc="T T T"
C		0.00000000		0.00000000		0.00000000		-232.63244681		-232.63244681		-232.63244681		0
C		0.34396505		0.34396505		0.34396505		232.63244681		232.63244681		232.63244681		0
2
Lattice="9.07538555 0.0 0.0 0.0 9.07538555 0.0 0.0 0.0 9.07538555" Properties=species:S:1:pos:R:3:force:R:3:tags:I:1 config_type=shaiducarbon energy=-434.0396274191783 unit_cell=conventional pbc="T T T"
C		0.00000000		0.00000000		0.00000000		-207.59721105		-207.59721105		-207.59721105		0
C		0.35931118		0.35931118		0.35931118		207.59721105		207.59721105		207.59721105		0
2
Lattice="9.07538555 0.0 0.0 0.0 9.07538555 0.0 0.0 0.0 9.07538555" Properties=species:S:1:pos:R:3:force:R:3:tags:I:1 config_type=shaiducarbon energy=-491.3191936067112 unit_cell=conventional pbc="T T T"
C		0.00000000		0.00000000		0.00000000		0.46702063		0.46702063		0.46702063		0
C		2.07966561		2.07966561		2.07966561		-0.46702063		-0.46702063		-0.46702063		0
2
Lattice="9.07538555 0.0 0.0 0.0 9.07538555 0.0 0.0 0.0 9.07538555" Properties=species:S:1:pos:R:3:force:R:3:tags:I:1 config_type=shaiducarbon energy=-498.835002765247 unit_cell=conventional pbc="T T T"
C		0.00000000		0.00000000		0.00000000		2.75911099		2.75911099		2.75911099		0
C		0.81916600		0.81916600		0.81916600		-2.75911099		-2.75911099		-2.75911099		0
2