24
Lattice="3.61806252555 0.0 0.0 -0.8933864710589083 6.162703788769725 0.0 1.3052015838420603 0.301417170941045 7.735703506565418" Properties=species:S:1:pos:R:3:force:R:3:tags:I:1 config_type=shaiducarbon energy=-6089.0027902871825 unit_cell=conventional pbc="T T T"
C		0.56785962		2.37479892		0.58525888		0.14122566		0.19036591		0.08283252		0
C		3.48037860		0.33714771		1.85310939		-1.24008103		0.49223345		0.88984663		0
C		0.45624890		1.54356931		1.88717924		0.16790988		2.05475010		-2.00985346		0
C		0.99834864		2.36423888		2.94495890		-2.92834992		-0.36385354		0.54828791		0
C		0.29187489		2.44193894		4.21757838		3.13361847		-0.95654702		-3.23828842		0
C		3.18778878		1.47703929		4.87916789		-0.57292630		2.09994858		2.49003460		0
C		3.06646863		0.18832703		4.52291825		1.51823836		1.38242333		-3.66682839		0
C		2.08011930		1.73152947		7.14799701		-1.28507332		1.59932536		3.17952761		0
C		1.33150960		0.64352380		7.14193711		-0.25565141		0.94334053		-1.21824258		0
C		2.84711889		2.12402919		6.15645757		2.92662908		0.72470147		-2.42663886		0
C		1.23027947		4.78032821		0.25799174		1.32453541		-0.81810355		-0.27176170		0
C		2.99207873		3.32411882		0.16242206		-0.63557436		-2.02321884		0.27156810		0
C		1.69638940		3.46839847		0.93837744		-1.40701826		-1.55620201		-1.01471801		0
C		-0.20377905		4.75271805		0.18945586		0.50577212		0.49688972		-1.54324750		0
C		2.20716901		5.87306775		0.55104069		1.69732534		-1.13618808		3.95058636		0
C		1.62422931		3.49682849		2.41073894		0.27034991		-1.37003600		-1.34749847		0
C		1.92410917		4.54694834		3.19099873		-1.05709317		-0.29343483		3.02563128		0
C		2.30328900		5.86930750		3.07913873		0.16115790		0.29481371		3.10733612		0
C		0.72414762		3.44810874		5.03772803		-1.52597121		-1.95714632		0.81336988		0
C		1.91442940		5.31524790		5.48630772		0.17799092		1.66306871		2.32098444		0
C		1.49937938		4.37694825		4.56343802		0.65792858		-1.80968033		-1.92308329		0
C		3.03731863		4.78276823		6.44614751		0.56672222		1.67139138		0.00947041		0
C		0.81963371		5.57988783		6.54094726		-2.70038520		-0.98805077		-2.71350477		0
C		3.61491843		3.40676876		6.33192745		0.35872059		-0.34079125		0.68418933		0
16
Lattice="4.378986242576 0.0 0.0 -0.396814975329752 4.891047377837867 0.0 0.33715128777465403 0.43344957423514285 4.889571659474119" Properties=species:S:1:pos:R:3:force:R:3:tags:I:1 config_type=shaiducarbon energy=-4055.438292886931 unit_cell=conventional pbc="T T T"
C		1.12846957		2.40055894		1.56131922		1.03672024		-0.04247877		0.07999428		0
C		2.66118920		2.46777901		1.58962937		1.77197430		-1.72965211		0.08757467		0
C		0.66434476		1.38358931		2.41971920		-0.24504766		1.64841521		1.70927070		0
C		3.52824862		1.46791939		2.46575898		-2.46771072		2.64180694		0.12266306		0
C		2.88816870		2.62542908		4.83391825		-0.54324701		0.66024952		0.11506930		0
C		1.37831964		2.62282884		4.87980827		-3.03365621		1.20759949		-1.34228272		0
C		3.51426871		1.50632923		4.10212834		2.01680933		-2.66821578		-1.03521306		0
C		0.80542563		1.45971930		4.06831863		-2.12662843		-0.11851715		0.78763749		0
C		1.10825967		3.85666865		1.98871923		-0.47329418		-1.53791246		-0.58285848		0
C		3.22103865		4.98247798		2.06756901		0.39141759		-0.92648077		-1.76494592		0
C		0.15845800		4.87718832		1.94525910		3.02171009		0.90058845		0.82116702		0
C		2.47989917		3.89870867		1.95600908		-3.44575783		-2.01909093		-0.21055654		0
C		1.05641948		5.09562792		4.46093809		3.55098262		-1.36283536		-1.26013694		0
C		2.52974911		5.04240791		4.26961843		-0.04182622		-0.22672211		3.04587873		0
C		3.41886855		3.84408869		4.35353820		-0.29257660		2.84284010		0.49313617		0
C		0.44651472		3.85717836		4.47379830		0.88013043		0.73040598		-1.06639748		0
16
Lattice="4.377612499084 0.0 0.0 -0.7399697287826639 5.043119039257245 0.0 0.4142709812383152 -1.2869349000932133 4.971409368909751" Properties=species:S:1:pos:R:3:force:R:3:tags:I:1 config_type=shaiducarbon energy=-4056.3213133038516 unit_cell=conventional pbc="T T T"
C		0.08926609		0.62421077		0.95423153		8.23926301		-0.43821710		-0.51738580		0
C		1.01117946		0.48652172		2.30784886		1.42502474		-1.28262614		-6.60517451		0
C		0.40220584		0.07227394		3.38230845		-3.12464480		-1.83162599		4.37698306		0
C		1.23457953		0.07342788		4.72974809		-1.81611426		-2.20547471		0.25198193		0
C		0.76990953		2.85112895		0.18001312		0.32969975		3.43591127		-1.53269131		0
C		1.59951920		2.91936893		1.44062937		0.07853338		1.22133896		1.30824900		0
C		0.96820969		2.47491912		2.61688904		1.03072186		1.35646957		2.88735699		0
C		1.82824945		2.30447897		3.83516853		-0.26372263		1.31409364		2.93004402		0
C		3.18656876		0.74674277		1.00341970		-6.60182411		-0.74231662		-1.94179579		0
C		2.51266903		0.28046794		2.14892926		-2.18124024		0.32858107		1.20257221		0
C		3.23196854		0.20612601		3.46849839		5.32418360		-1.94610651		-5.69330431		0
C		2.69646878		-0.13461903		4.58049820		-1.60347564		-4.57401251		5.98349029		0
C		3.70870849		3.21688854		0.40121869		0.05537749		2.95347039		-4.40620316		0
C		3.01396870		2.87361894		1.49939926		1.25357317		0.43506519		1.86858409		0
C		3.90019840		2.57083874		2.81041891		1.69131693		3.37529310		-5.98676125		0
C		3.30897863		2.34320902		3.92473842		-3.83667226		-1.39984411		5.87405454		0
16
Lattice="4.712777335574001 0.0 0.0 0.5974764850494007 5.283169489275858 0.0 -0.34812814900151584 -0.8826089394062988 4.2489316518748" Properties=species:S:1:pos:R:3:force:R:3:tags:I:1 config_type=shaiducarbon energy=-4059.4515717679933 unit_cell=conventional pbc="T T T"
C		0.38150781		0.87155371		1.98915916		0.71024928		0.50106854		-4.62453112		0
C		0.31832266		0.75073977		3.36197847		3.44491811		-3.49757743		0.74483862		0
C		0.68967773		3.47996851		1.85620936		-0.55377774		0.88658570		0.67065401		0
C		0.60685962		3.27845863		3.31557835		2.68897437		-1.56101229		-1.79662091		0
C		1.57535940		0.41885798		1.21058949		0.27343240		-0.10296299		1.07969318		0
C		1.33438944		-0.21496203		4.07937818		-0.88766968		0.16979733		-2.94918178		0
C		1.90892931		3.08372856		1.18177934		0.65467742		-1.42258888		-0.88558991		0
C		1.69255911		2.26312893		3.96943851		-2.54618522		3.51269964		0.47038497		0
C		2.43577917		-0.69657158		3.27467852		2.90028296		-0.54070187		0.51990214		0
C		2.90051887		2.18527903		1.83799918		0.20370172		0.12795079		0.43308466		0
C		2.93631854		2.01506907		3.26368879		-1.15086523		-1.64819950		2.02563053		0
C		3.24463880		4.83275805		1.81118914		-3.28355169		0.23945499		2.76655413		0
C		3.87483846		1.02925973		3.99821850		-3.38075721		1.48812378		1.23694403		0
C		4.06291833		1.68979930		1.17945971		1.39754091		0.11860817		-0.05451334		0
C		4.36099820		4.34925820		1.13138939		2.04685809		-1.48312143		1.46007816		0
C		4.11841835		3.55362828		3.97451841		-2.51782825		3.21187545		-1.09732736		0
16
Lattice="3.023901002419 0.0 0.0 0.24265293593911266 3.4558168781985152 0.0 -0.0009071703007257 -0.04687651333949934 9.839792005277442" Properties=species:S:1:pos:R:3:force:R:3:tags:I:1 config_type=shaiducarbon energy=-4052.2685315029676 unit_cell=conventional pbc="T T T"
C		1.50176963		1.47465945		0.23416485		-1.00803802		0.99801611		1.29071612		0
C		1.68816954		0.88936255		3.40827874		0.61271570		-0.66037216		-0.92415212		0
C		1.29571951		1.37936968		4.89849827		-1.04851982		-1.87150872		-3.41002024		0
C		0.40617189		0.31228189		5.64194792		-0.20265528		3.07299695		0.07081029		0
C		2.47522929		1.62709944		5.64586811		0.03974029		0.80926871		1.92668592		0
C		1.48024944		1.07635968		7.87244746		1.38369757		1.07332790		-1.02489856		0
C		2.52189927		0.55841473		8.92929693		-4.37183442		0.22675270		-0.23478149		0
C		0.52563987		1.50522958		9.00495705		2.93565597		3.69813726		-4.62275063		0
C		1.56703932		2.32174907		1.32531956		0.96582665		0.01317563		0.09538672		0
C		1.02205979		3.36641887		2.65666909		-0.51798975		-0.54447831		-1.22475031		0
C		2.80649915		3.11017895		3.48516868		4.59016779		-1.40124279		-3.07519550		0
C		2.18764934		2.07585935		2.54398917		-2.98208550		-1.06580433		4.67378733		0
C		0.29595101		2.55581927		4.80566844		-0.01045180		0.86055609		1.99137827		0
C		2.12539932		2.24826919		7.07584761		-1.66699273		-1.32212988		1.91068825		0
C		1.12916969		3.48142871		7.02302762		1.27743688		-3.38694432		2.55664525		0
C		3.12348895		2.77992904		8.16462735		0.00332624		-0.49975085		0.00045097		0
16
Lattice="5.164289673169001 0.0 0.0 0.3750823589622645 4.554381898478068 0.0 0.4926990562686885 0.4430237539024759 5.342819167170453" Properties=species:S:1:pos:R:3:force:R:3:tags:I:1 config_type=shaiducarbon energy=-4057.529699431922 unit_cell=conventional pbc="T T T"
C		1.30662932		1.22707964		1.15546953		-0.56870429		-0.66160320		1.17236995		0
C		1.29472977		0.57011589		2.48184917		0.34155641		-1.15793037		0.12172794		0
C		1.43505953		1.45988943		3.91242867		1.01542429		-1.75671967		-0.86695763		0
C		1.54406942		0.74053074		5.21832828		-0.21507397		1.73429809		-0.33149567		0
C		1.20939969		3.43074866		-0.04574786		1.47764087		-0.88286377		-2.52216081		0
C		1.37730934		2.74067923		1.16539943		0.00584592		-0.81130169		1.51205305		0
C		1.55878919		3.57327893		2.48761923		0.44685910		0.47908251		1.36816218		0
C		1.61986931		2.85819884		3.86878836		-0.40964416		2.78893431		-1.14071965		0
C		3.74346861		0.70591863		0.98859946		0.40116414		2.79573386		-2.97738244		0
C		4.00278877		1.72318919		2.25539920		-0.41114902		-4.35803736		0.43984590		0
C		4.08378858		0.96604081		3.51408894		-0.14202888		1.28650414		0.95962386		0
C		4.30177842		1.92102951		4.87777798		-1.91809457		-1.88682119		1.28835713		0
C		3.98445864		3.81856874		0.94230263		0.37286707		0.35496318		-0.49897258		0
C		4.12201827		3.11176908		2.22613936		-0.26655598		2.44561799		-0.27602048		0
C		4.39744843		4.02659872		3.52707867		-1.88086060		0.62259054		0.35752194		0
C		4.24135829		3.39737857		4.83006821		1.75075317		-0.99244761		1.39404755		0
24
Lattice="5.052749745109001 0.0 0.0 -0.9772422227020415 6.773509145553576 0.0 0.34882163140334493 -0.0628814705778815 4.97163290070102" Properties=species:S:1:pos:R:3:force:R:3:tags:I:1 config_type=shaiducarbon energy=-6078.636541174397 unit_cell=conventional pbc="T T T"
C		0.60312198		2.19108855		1.57661001		1.01045666		-0.42572822		-2.83368954		0
C		3.04977103		4.04641531		2.69147903		0.77158814		-1.55931022		0.22891475		0
C		0.59934707		6.16155446		4.39916595		-0.65717370		-2.00835913		0.40700646		0
C		0.95604695		5.40502897		3.13946795		1.07424090		0.60457275		1.28073072		0
C		3.62986864		4.79792694		1.69447752		1.42364252		-0.60702738		-0.29246887		0
C		0.72645556		5.12543608		0.54113282		0.47530710		1.13440553		-0.61820063		0
C		4.62550590		1.94227043		2.66648661		1.11634223		0.12955156		0.43936073		0
C		4.27449744		0.02884918		4.19123722		-0.08899623		0.86498790		0.09571067		0
C		3.24211708		2.61749970		2.72067735		-1.88983813		0.25662020		0.41008973		0
C		2.07678827		4.61650695		3.50021963		-1.50872450		0.65001857		-0.25718482		0
C		1.95357647		1.84594178		3.47162814		1.18589988		-0.12062854		-1.48641990		0
C		2.17179109		0.91595843		4.49462655		-0.60042299		-3.30387088		-0.84559817		0
C		4.09841972		6.25991886		1.61269877		0.18876823		-0.12449471		-0.59840981		0
C		0.69244853		6.00410926		1.82164664		-0.77269474		-1.07545806		-0.67175290		0
C		2.00507106		1.70076769		1.95044679		-0.42538240		-0.22066073		2.34645817		0
C		3.11930899		4.15938620		0.50463580		1.99988708		2.28598424		-2.23257416		0
C		4.19330834		0.37247810		2.52118065		-0.17705787		-0.02754991		1.45586772		0
C		0.62179340		2.22305780		3.83518864		-1.43483042		1.43820371		2.05129967		0
C		3.00857091		0.61306326		0.13334914		-0.51365796		0.51775553		0.39165568		0
C		-0.41157325		4.00065154		0.49158051		-3.20170802		0.71554910		0.37395182		0
C		2.33736818		4.54573561		4.89120879		-1.61238452		-1.27262737		0.35156315		0
C		0.04092828		2.62500657		0.29711987		0.78930125		0.50350492		0.56284474		0
C		4.35733373		6.42802031		4.97035708		1.61179856		0.43600210		-0.47275116		0
C		2.71494905		0.39963562		1.62286086		1.23563945		1.20855903		-0.08640456		0
24
Lattice="8.182548590414001 0.0 0.0 -2.0932350327539386 7.385543810061906 0.0 -0.08621951449719233 -0.5694808342470432 3.4246829742889235" Properties=species:S:1:pos:R:3:force:R:3:tags:I:1 config_type=shaiducarbon energy=-6083.090230243231 unit_cell=conventional pbc="T T T"
C		-1.28914826		4.17715505		1.65225049		3.21969084		0.40296185		-1.20495588		0
C		1.09979835		5.51726668		1.09947842		-0.24101180		-2.63374986		-0.85760575		0
C		5.13940886		1.77085162		1.55176961		0.10775630		1.86003362		0.54230495		0
C		2.84133927		3.93042503		3.32406954		-0.10856646		-1.86154312		-0.54268393		0
C		5.56522459		4.11239754		2.20543987		-0.31479866		2.15294960		0.81129269		0
C		3.30794501		2.72893069		2.69013886		0.46279404		3.03958930		0.83273750		0
C		0.61985506		3.22462703		0.45860321		1.99175982		-1.25947205		-1.35199533		0
C		4.67275075		2.97238687		2.18559064		-0.46091019		-3.04085839		-0.83160365		0
C		-1.80330524		6.52095691		2.71073843		1.57934222		2.58484359		0.20107971		0
C		1.72157386		6.78104576		1.28391879		-0.81753096		-1.35351691		-0.07553855		0
C		6.48704679		1.93077708		1.00721036		0.50876257		-3.10724279		-1.35925999		0
C		-0.49197001		6.56606566		2.16453858		-1.57528681		-2.58184748		-0.20079277		0
C		4.25214566		6.87525471		0.16721038		0.81995371		1.35484823		0.07697760		0
C		-0.73538528		3.04607809		0.99266916		-1.99415121		1.25998473		1.35066992		0
C		1.57996585		4.33991904		0.44407264		-0.50836739		3.10637684		1.35778289		0
C		3.76792943		5.04736828		3.31377835		-2.81830970		1.43122368		1.61027852		0
C		0.07674658		0.42233161		3.26107864		-1.17874784		-3.25161805		-0.64399936		0
C		4.21277696		0.65394274		1.56194788		2.81394525		-1.43171810		-1.61029061		0
C		2.41543843		1.58893884		2.67021763		0.31510102		-2.15452389		-0.81203497		0
C		5.19886816		5.40141897		2.82235984		3.35311114		-0.91713403		-1.64897597		0
C		-0.27864360		5.27902768		1.61453057		1.17599135		3.25429535		0.64454546		0
C		6.96717583		0.75347689		0.35169821		0.24322783		2.63287877		0.85862288		0
C		2.78174086		0.29997305		2.05314791		-3.35750285		0.91518205		1.64782746		0
C		1.08731097		1.52416087		3.22348965		-3.21625173		-0.40194318		1.20561717		0
16
Lattice="5.168000262293 0.0 0.0 2.2699252512061676 4.534661830148993 0.0 -0.29188865481430865 0.9136611023713042 5.554478825908058" Properties=species:S:1:pos:R:3:force:R:3:tags:I:1 config_type=shaiducarbon energy=-4063.720589064296 unit_cell=conventional pbc="T T T"
C		1.02612971		2.37484909		1.82166945		1.85127541		-0.72657297		-0.37616554		0
C		1.00042976		2.51856911		4.55762791		1.02249098		-1.20374926		-0.32311438		0
C		2.21505918		4.62052815		1.78302934		0.33785401		-0.70360683		0.34315512		0
C		2.21815894		4.70982810		4.49852821		-1.19431871		1.70461880		0.82823910		0
C		2.41883911		1.60998919		1.78611929		-0.74009030		-1.10396956		0.27939917		0
C		1.13875956		0.95939480		4.56440832		0.68034605		0.78538880		-0.25996778		0
C		3.57017861		3.82004833		1.79575916		-0.11259049		1.45253197		0.02821042		0
C		2.28407885		3.25367891		4.55287800		-0.90198405		-1.02834230		-0.16504490		0
C		3.63655848		2.33509890		1.87496910		0.90717871		0.26792355		-1.19175326		0
C		3.59468837		2.48704896		4.51700794		1.01128044		-0.18261249		0.42514072		0
C		4.81886825		4.60386807		1.76647934		-1.08342566		0.22336913		0.50515711		0
C		4.76635827		4.75427807		4.56628792		0.10601721		0.26022669		-0.48075090		0
C		5.01602798		1.58329957		1.81647922		-1.19049753		-0.16940678		-0.12525524		0
C		3.73917842		0.99402041		4.57487817		-0.64801980		-1.03793406		-0.56089816		0
C		6.13417755		3.85190853		1.78201951		0.12477342		0.85414658		0.06607483		0
C		4.85239824		3.23851858		4.49637832		-0.17028892		0.60798872		1.00757368		0
24
Lattice="5.1951782638360005 0.0 0.0 2.1068422027595237 5.028480578884294 0.0 -1.1250522192815327 0.12144248709543035 8.03535104960556" Properties=species:S:1:pos:R:3:force:R:3:tags:I:1 config_type=shaiducarbon energy=-6090.463344695321 unit_cell=conventional pbc="T T T"
C		1.01984986		1.08706975		0.82372149		-0.53263040		-0.36111789		0.23547904		0
C		5.00410792		0.25571499		0.64365090		1.52081949		1.19873818		-1.60695177		0
C		2.54257895		2.32887893		2.09492914		-0.16877300		-0.49780015		1.27861007		0
C		1.40341922		1.46604969		2.19218911		0.09962544		0.82384997		0.07381823		0
C		4.74821838		0.37757309		3.27856894		-0.96018744		-0.66175104		-0.81511669		0
C		0.71737255		1.15036936		3.42474879		1.41561167		1.59660256		0.61798826		0
C		4.06757833		0.06595175		4.48613826		-0.18782026		0.46973628		1.10114006		0
C		1.24814937		1.75114913		4.82995827		-0.03068537		-0.47788823		-0.39491352		0
C		-0.64872970		0.57994191		5.99494790		-0.78180880		-0.85693417		0.39001762		0
C		0.56748802		1.37954946		6.24500742		-0.60299975		0.42807461		-1.21713289		0
C		3.64343878		0.09553881		7.18021743		0.11309289		-0.11747996		0.54708130		0
C		0.82203565		1.78729926		7.82610693		-0.10351989		-0.39708328		0.32858004		0
C		2.95325883		2.47581883		0.72256669		0.04461947		-0.36505785		-0.15630314		0
C		4.16811854		3.23593887		0.53086981		0.89074215		0.98824797		-0.89731081		0
C		5.00666810		4.00590845		1.77820925		-0.68654652		-0.49615953		0.45257595		0
C		6.32393776		4.94371813		1.81585923		-1.28370909		-1.57074135		0.65553591		0
C		4.37649818		3.74290878		3.08667880		0.75661659		0.11070202		0.00174295		0
C		3.17080900		2.86997908		3.28870889		-0.65719684		0.44917695		-0.41241941		0
C		4.97057824		4.32242832		4.33105855		0.23196022		-0.17199228		-1.42104750		0
C		2.46124895		2.61392901		4.67833803		-0.52752007		-1.38026771		-0.79650780		0
C		3.14234877		3.17091861		5.76166777		2.08757154		1.95002127		0.60712663		0
C		4.29340857		4.01544835		5.46802799		-0.20887838		-0.89993154		0.85636853		0
C		4.66049831		4.31263852		6.81789739		-0.33425884		0.05446603		-1.21956439		0
C		3.49924869		3.52263842		7.22994724		-0.09412482		0.18458864		1.79120308		0
16
Lattice="3.858497799739 0.0 0.0 -0.39761433976530425 4.1930835779455675 0.0 -0.5386462928435644 -0.2316256229183322 6.9590322916972704" Properties=species:S:1:pos:R:3:force:R:3:tags:I:1 config_type=shaiducarbon energy=-4056.8679823608345 unit_cell=conventional pbc="T T T"
C		1.33920935		1.78598905		0.52795864		0.86913870		-0.72446338		2.03035417		0
C		1.24116955		1.08475955		1.92610924		-0.18387413		-0.25604736		-1.22069979		0
C		0.87422949		1.78171924		3.09541851		1.60504992		-1.04788784		-1.11499934		0
C		-0.46280790		1.61330931		5.09752781		1.58075761		-1.70219373		0.47940569		0
C		0.89076856		1.07301969		4.39415800		-3.69252890		-0.53879102		0.02260773		0
C		2.08828885		0.87861660		5.25388764		1.36203344		4.19220519		-1.59288474		0
C		2.09336895		1.01575958		6.74695691		-3.26916276		-1.22539617		2.27534681		0
C		-0.50383685		1.66263905		6.62495699		2.57831144		-1.87676792		2.40402650		0
C		1.27151933		3.30909865		0.65233886		-0.04975063		-0.37006688		-1.02979420		0
C		1.02759938		3.89234840		1.95098922		-0.72736230		2.07566732		-0.06150469		0
C		0.75192283		3.14513873		3.07865874		0.23793058		-1.00456086		1.34152759		0
C		0.54753859		3.70395840		4.42610791		-3.44005049		0.30469524		-1.00189205		0
C		1.76229903		3.65450828		5.34411746		0.91301101		-2.71106839		-2.56332009		0
C		-0.68626972		3.06057859		5.17969761		1.72292841		2.65683684		-2.22134845		0
C		1.84841916		3.70958834		6.86875695		-0.38848962		-0.72358458		0.16783866		0
C		-0.61289074		3.08913842		6.69449677		0.88205773		2.95142379		2.08533648		0
24
Lattice="4.982056989678999 0.0 0.0 0.49774734972484946 5.7654705051350525 0.0 1.0758204042942934 -0.9031871475449266 6.163103419652304" Properties=species:S:1:pos:R:3:force:R:3:tags:I:1 config_type=shaiducarbon energy=-6083.263252681024 unit_cell=conventional pbc="T T T"
C		3.00588772		2.37293880		5.94216862		-0.63150610		1.96889807		-0.57169140		0
C		0.45366163		3.17476649		0.03895072		-0.46743514		1.10225232		0.54845041		0
C		5.20973550		1.45991807		1.65725236		-0.72453794		-0.27789250		-0.01844794		0
C		4.54671837		0.67513449		0.68125694		1.69697182		0.93821761		0.82311129		0
C		2.82771939		2.32961633		0.28705267		1.67290499		-1.01859035		1.32854556		0
C		4.79790771		2.78661742		1.39801999		1.83869011		-0.02570719		-0.35554039		0
C		3.32912656		2.88064179		1.52374718		-0.49315262		-0.09994194		-0.68895796		0
C		4.43704935		5.27925761		1.18252062		-0.87554820		-0.24856879		0.67392960		0
C		5.95463722		3.71419074		6.05781910		-0.00438168		-1.20776507		-1.15742515		0
C		4.84198696		0.54728544		5.70072917		-0.21415686		-0.67777700		0.26627753		0
C		3.55992783		5.15442968		2.29605171		0.54790148		-0.81135362		0.52091079		0
C		1.10227861		1.27006084		5.12177928		-0.47392513		0.02379095		0.01493478		0
C		4.87904698		3.91767888		4.96791741		-0.21536528		1.00912509		-0.62172279		0
C		4.38633948		-0.34940062		4.44603798		1.01439431		0.14662833		1.19086803		0
C		1.85023035		-0.08651691		4.57444053		0.00323651		0.30060744		-0.26968862		0
C		2.72149148		3.93262006		2.26987100		-1.37890503		0.65580228		1.18113768		0
C		3.11729697		-0.06631965		3.72008601		0.08202134		0.25374314		-0.55520290		0
C		3.43110877		3.61318701		5.46425683		-0.86554738		-0.40647501		1.07131472		0
C		5.82395736		1.93667850		3.86305809		0.36431609		-1.97912618		-0.35479631		0
C		1.49274783		4.10738913		3.02421023		-0.58594509		-0.34881721		-1.08600653		0
C		2.33481161		4.61733056		5.68019961		-0.35957754		-0.56325972		-1.70568658		0
C		0.69473091		-0.30910774		3.53036729		0.15795276		-0.05002779		0.52876166		0
C		5.62969949		3.26768086		3.80709066		-0.26027400		0.81994471		-1.48562543		0
C		0.70660464		0.99928106		2.83793660		0.17186861		0.49629246		0.72255048		0
16
Lattice="4.7879940251769995 0.0 0.0 1.9613251445093551 4.100347111275104 0.0 -0.45564945140596913 0.26551820866619047 4.572682721858815" Properties=species:S:1:pos:R:3:force:R:3:tags:I:1 config_type=shaiducarbon energy=-4060.2167650709234 unit_cell=conventional pbc="T T T"
C		0.92838151		1.47461933		0.61653084		0.29859607		-0.16504001		-0.60634861		0
C		1.17058937		0.19075799		1.41426954		-2.59062806		2.38540219		-1.74424904		0
C		2.65296860		1.38156945		2.84179894		-0.73944058		0.79489289		1.20082643		0
C		1.36075939		0.60088272		2.92307849		1.13955237		-1.19586831		-1.06572334		0
C		2.18327883		2.28130918		0.61646668		-2.17334746		0.50381577		-2.26476208		0
C		1.75340938		3.60749830		1.29835938		4.38390011		-0.33360192		3.34320802		0
C		3.53155832		3.41432859		3.69854823		2.14920093		2.81062724		-2.19372039		0
C		2.29124905		2.68259862		3.65737818		-1.28301361		0.46932002		-0.51390067		0
C		3.57411832		0.27807807		0.64225051		0.43007287		0.66708609		-3.58813869		0
C		3.23637849		1.59808924		1.29019920		0.74409557		-1.16007287		2.80812659		0
C		5.00866788		1.37833947		3.66473829		-1.27312334		1.94399512		-1.34087736		0
C		3.67930815		0.69704048		3.62737853		1.61881511		-1.53183308		0.43865779		0
C		4.35082815		3.59224854		0.55211269		-2.96162516		-2.31441655		1.32802697		0
C		4.53230796		2.32794903		1.28288937		0.13481616		-0.83811240		2.01134290		0
C		4.75901804		2.67257878		2.79157863		0.86374966		-1.20719429		3.18989379		0
C		6.01771751		3.46502866		2.90151863		-0.74162011		-0.82900015		-1.00236257		0
16
Lattice="5.3395356327279995 0.0 0.0 1.2651121960691432 6.071014637662306 0.0 -1.1338931078948524 2.2608234613246276 4.290364936717642" Properties=species:S:1:pos:R:3:force:R:3:tags:I:1 config_type=shaiducarbon energy=-4063.6347803756194 unit_cell=conventional pbc="T T T"
C		2.31615920		1.40087950		0.59789290		0.93037651		-0.10444523		0.45959507		0
C		-0.44073702		1.13278943		2.04203919		0.20630265		0.81907748		-0.54302409		0
C		-0.06410219		3.78460839		4.17681811		0.32938145		0.85779524		-0.39864985		0
C		1.50840921		4.19686807		2.02309933		0.56036285		0.54761326		-0.26923148		0
C		0.10758577		4.10703839		2.74882872		-0.61305842		-0.75375161		0.20404316		0
C		1.65380957		4.49425831		0.58423063		-0.34128875		-0.45745823		1.16034592		0
C		1.94624899		6.88082730		4.18410818		-0.59182932		0.24186695		-0.88981655		0
C		2.09172891		7.17556700		2.75245907		-0.30295101		-1.32072426		0.42630517		0
C		5.02222785		1.44206921		0.60973279		-0.90792510		-0.77211110		0.19991011		0
C		2.23688899		1.13797945		2.02715897		-0.54771224		0.50353732		-0.17715943		0
C		3.73357845		1.53981956		-0.09111651		0.86469840		0.38887554		-1.25806206		0
C		2.77285876		4.08121853		2.73412898		-0.54973288		-0.40130452		1.15656126		0
C		4.18399818		4.21297851		2.03627944		0.04611997		0.16506392		-0.34104836		0
C		4.30834849		4.47272823		0.59840389		0.63990899		-0.09970412		0.91614364		0
C		5.71951781		4.61086789		-0.09064823		0.59794367		-0.12193878		-1.39029014		0
C		4.75277780		7.06059718		2.73688898		-0.32059650		0.50760789		0.74437736		0
16
Lattice="5.2295938192080005 0.0 0.0 2.0714055046315543 5.096767365793936 0.0 -2.250268072436106 -1.3805500131450816 4.273352130178179" Properties=species:S:1:pos:R:3:force:R:3:tags:I:1 config_type=shaiducarbon energy=-4058.0785577817805 unit_cell=conventional pbc="T T T"
C		-0.18606110		-0.52782761		3.06962880		1.63403091		1.18969123		0.95275746		0
C		1.05261944		0.27047878		1.01964947		-1.24634090		-0.12424223		-0.09855869		0
C		2.26467926		0.57567787		0.30123506		-0.76312895		-0.73524223		-1.49424018		0
C		1.10478935		-0.29378812		2.38620927		0.12030972		2.31464049		0.24122391		0
C		3.66716847		3.13272856		0.09677363		1.54203574		0.08501899		-1.98464326		0
C		2.44013894		2.93242884		0.76921886		-1.20438381		-1.53722109		-0.57972199		0
C		2.55431875		2.48891902		2.14295890		-0.50281278		-2.13154438		2.62280390		0
C		1.36594951		2.09745934		2.94097870		-1.77165060		1.34745630		-1.29621829		0
C		3.60490859		0.27932986		0.91361579		0.81361902		-0.51035743		2.12346494		0
C		4.88356781		0.62743098		0.38509160		-0.10275216		-0.85953202		-3.58493612		0
C		2.47425890		-0.43199687		3.04851850		-0.23845072		-0.96061682		2.48591620		0
C		3.69511856		-0.21139796		2.38464928		0.45813803		0.86615776		-1.02195696		0
C		6.25573740		3.07392858		0.05972405		2.78673422		1.40830947		-2.02371043		0
C		5.10290795		2.85240873		0.73232669		-3.55807965		-1.19907756		2.71034257		0
C		5.12162781		2.43269879		2.21636932		2.15232097		-0.39537015		-0.35971406		0
C		3.90693855		2.07355905		2.83029906		-0.11958879		1.24192915		1.30719125		0
24
Lattice="6.632622495565 0.0 0.0 2.74578632595899 6.0751572074352564 0.0 -1.5496193893738244 2.905367223202284 5.441602474036393" Properties=species:S:1:pos:R:3:force:R:3:tags:I:1 config_type=shaiducarbon energy=-6078.8322324739065 unit_cell=conventional pbc="T T T"
C		-0.34345311		1.50848917		1.57454943		-0.38324919		-0.14171572		1.74282079		0
C		0.37343190		5.05085810		4.25092801		1.13129346		-0.82495580		-1.36900499		0
C		1.82533950		7.46896701		4.37547805		-0.98162378		0.11085603		-0.79700943		0
C		3.85998864		5.45314788		-0.01040062		-0.17374089		-1.29090407		-3.66173144		0
C		2.91435907		3.30383860		0.85811344		-0.59272638		-1.86756362		-2.72166109		0
C		0.97330087		1.69429944		1.08650979		1.38711431		-1.40679381		-0.53299652		0
C		3.98187833		4.30087829		1.01047937		1.15728579		1.60255929		1.53844365		0
C		1.38127945		0.95358142		-0.26372368		-0.50741506		0.58665755		2.63458881		0
C		1.25019960		6.11788721		4.79214802		-1.64288811		1.58515677		4.40301396		0
C		2.30513876		2.27209902		1.68097914		-1.78901558		1.64401759		-2.73256515		0
C		3.56789856		5.17343759		3.89177814		2.37185529		-1.43895010		1.41466010		0
C		4.14806798		6.30817715		4.02217815		0.61238222		-0.03574710		0.42763778		0
C		5.06423809		3.92621803		1.79152904		-1.49682440		1.33330211		0.80714884		0
C		6.85626723		5.05091779		0.06625725		-1.27574946		0.60742513		1.25218040		0
C		4.84475798		0.13288525		-0.19444196		0.86683653		1.12803022		6.56940041		0
C		6.38446757		4.63178779		1.70163910		-1.46090554		-0.57843747		-2.15262333		0
C		4.38729805		3.01005853		3.00735839		1.73891888		-1.90207813		-2.83136398		0
C		4.92463797		7.50836678		4.27093797		-1.15027799		-5.52780253		-3.75432979		0
C		3.10717869		1.75209943		2.71651855		0.00973832		0.86122149		2.46945265		0
C		3.77924840		3.66122818		4.10820857		0.72360438		5.05906229		-1.39500452		0
C		5.17022806		0.68210885		1.16992961		0.78484733		2.08922656		-3.60445518		0
C		6.96598672		5.30498770		2.80710890		-1.15388473		-0.13647452		0.47883259		0
C		5.38211780		1.78898941		2.97681848		0.53329503		-2.11438457		1.26481609		0
C		7.10671705		6.75670692		2.39340902		1.29112981		0.65829213		0.54974933		0
24
Lattice="4.685267540052 0.0 0.0 0.08363671085746824 4.655000711743264 0.0 -0.11337878920171833 0.2278117635999484 6.746302675118254" Properties=species:S:1:pos:R:3:force:R:3:tags:I:1 config_type=shaiducarbon energy=-6087.3958697249045 unit_cell=conventional pbc="T T T"
C		0.51990493		4.39430821		1.04002960		-0.44929008		-0.33734545		1.03483897		0
C		0.57877766		2.73304915		0.88292086		-0.66109052		0.17374603		-1.43239070		0
C		1.46391934		0.33566100		1.93014938		-0.35737950		0.35357298		-2.04893503		0
C		1.39469967		2.09289917		1.97073925		-0.72223295		-1.22264200		0.57333973		0
C		1.90790935		4.25649809		3.23999885		-1.87697849		-0.19327640		-0.10464706		0
C		1.11916939		2.85285894		3.33473870		0.12058123		0.08511875		-2.14725666		0
C		1.15277962		0.56870480		4.20551816		0.75348190		-0.27531882		-0.91556926		0
C		1.90606944		1.92037919		4.13752837		-0.34044466		1.07535418		0.27551783		0
C		0.45540894		2.33928896		6.24320755		2.14043629		0.47529270		-0.17896846		0
C		0.28915175		0.71426060		6.43057749		-1.93628103		-0.08676271		-0.37291052		0
C		1.86972910		2.10170935		5.62438772		-0.56936146		2.77190563		1.76806930		0
C		1.51972931		0.62003097		5.65514791		0.32315809		-0.40733890		1.34052511		0
C		3.70406850		2.82169910		1.04294946		-0.70863463		-2.48836210		1.00461151		0
C		2.76208891		0.40448102		1.10800955		-0.29776457		0.64624805		0.96112204		0
C		3.80840848		4.15523822		1.68559949		0.54574586		0.94162895		-0.18822007		0
C		2.92898891		1.83889910		1.87886912		0.60636455		-0.14547364		-1.94146361		0
C		4.18156848		2.94428865		3.80536867		0.90885661		-0.75230125		1.68300609		0
C		3.57114840		4.13314859		3.19612881		0.33543075		0.03383909		0.32862040		0