16
Lattice="5.177714364482 0.0 0.0 -2.3901882820758256 4.373190751100058 0.0 0.3886910173416638 0.7544602931917658 8.634527338784212" Properties=species:S:1:pos:R:3:force:R:3:tags:I:1 config_type=shaiducarbon energy=-269.70738051314686 unit_cell=conventional pbc="T T T"
C		0.18918177		2.43484918		4.19363849		0.20913207		-0.33481481		0.18607363		0
C		0.09382329		0.95623686		4.10869809		-0.65654847		0.49378472		2.04032890		0
C		0.52412294		2.36577898		7.92986682		-5.13513906		3.03496062		-2.51509725		0
C		-1.04226976		4.66388835		4.20381839		0.95930982		-0.06163067		-0.15214318		0
C		-1.09078960		3.19360852		4.19638837		-0.08394664		0.04384998		-0.00772809		0
C		-0.76418559		4.59347816		7.86999691		-0.93429276		-0.41031985		-2.16088799		0
C		1.64070947		1.69004946		7.78521701		5.11218074		-1.83731005		-0.21107337		0
C		0.53957376		3.87776840		7.91267681		-0.35932899		-1.37762203		-2.18523419		0
C		2.75955866		2.36859928		4.06172845		0.01279793		-0.03780338		3.31642940		0
C		2.65878895		0.90479937		4.13132832		-0.78850913		0.15214352		1.05197276		0
C		3.09173855		2.46437923		7.77383692		-1.58156025		-2.61411715		-0.18585120		0
C		1.53644946		4.57583821		4.08578825		0.50986818		-0.41043900		2.31755203		0
C		1.48546916		3.08792879		4.19771853		-0.08722573		0.13741744		-0.49830193		0
C		1.77061936		4.65582820		7.86938697		1.21766745		-0.23668931		-1.98639625		0
C		4.33735838		1.74503938		7.82309665		1.55630773		0.13591428		-0.51711981		0
C		3.07022877		3.84102838		7.72094708		0.04928712		3.32267569		1.50747653		0
24
Lattice="7.722069877731 0.0 0.0 3.722910274962526 7.658301024680698 0.0 -0.24217955550539963 0.3100797159402883 3.0751984977582048" Properties=species:S:1:pos:R:3:force:R:3:tags:I:1 config_type=shaiducarbon energy=-495.86980116667996 unit_cell=conventional pbc="T T T"
C		7.29000154		4.51040156		1.71701845		-1.23812534		-0.22026744		1.66049798		0
C		6.80586714		0.68152749		0.99700957		0.17712935		2.10166988		-1.68703165		0
C		5.50667212		0.58365412		0.34694102		-0.32920678		0.66129351		0.08086684		0
C		8.52283462		4.62000475		2.43974782		0.96352355		0.43158282		-1.91394945		0
C		4.94305832		1.92261161		0.38935371		1.95142225		-0.13861577		-0.16962435		0
C		9.14807827		5.95678849		2.58014973		-2.07368653		0.11196806		-2.94255183		0
C		3.44827718		2.06565215		2.79958006		-0.58084669		-0.49593350		-0.09597546		0
C		8.54663945		7.26843843		2.86935051		0.03626137		0.22572480		-1.21226547		0
C		3.29844431		7.14874634		1.60969095		0.79273063		-1.33215868		1.43644980		0
C		1.37602266		0.75183617		2.58877837		-0.41166431		1.24163373		-1.29246240		0
C		7.50341947		1.97351009		0.72400892		-2.16419586		-0.56312925		0.78408244		0
C		5.40961960		3.22436727		0.94696747		0.61048304		-0.51995679		0.26733541		0
C		6.82551749		3.24592883		1.12054956		0.09383324		-0.80937594		0.39068018		0
C		2.80772916		0.75449102		2.57841767		0.88809977		-0.37325110		0.74248279		0
C		6.68824843		5.84068948		1.88140897		1.06061070		-0.65691841		1.98538496		0
C		4.74605442		4.46773558		1.38167985		1.27510139		0.36275105		2.69955333		0
C		7.21715462		7.12658864		2.39454900		-0.51721562		-0.67382708		0.48304859		0
C		3.38724734		4.54021878		1.87358883		0.56239970		1.24209245		1.92994791		0
C		4.68023536		7.11994380		2.07018964		0.12779275		-0.32752741		-1.75746577		0
C		2.72384123		5.83518905		1.99933965		1.01652659		0.33052474		-0.32936861		0
C		1.38897180		3.28494922		2.67079988		-1.72761421		-0.32629681		-1.39908881		0
C		0.72792864		2.02889896		3.05187862		0.67526576		-0.04883140		-2.30390722		0
C		5.27095594		5.80919888		1.71318058		-1.65723088		-0.46965094		1.36985226		0
C		2.78383631		3.32037653		2.39494901		0.46860614		0.24649949		1.27350852		0
16
Lattice="5.020591129642 0.0 0.0 -0.1711870957474033 4.254770241090927 0.0 -1.2666248537328617 0.0071342599952212826 5.590433243447497" Properties=species:S:1:pos:R:3:force:R:3:tags:I:1 config_type=shaiducarbon energy=-336.3811892297726 unit_cell=conventional pbc="T T T"
C		0.76075411		3.07176685		1.58687782		0.81893616		-0.25104541		-0.02394819		0
C		2.10131771		0.94440181		1.58677188		0.81886670		-0.25207219		-0.02244686		0
C		0.86835592		0.23996066		1.58354063		-0.76753531		0.26796428		-0.07877223		0
C		2.03806680		2.36735984		1.58348992		-0.76729151		0.26846747		-0.07832833		0
C		-0.99032616		4.15676680		4.38606924		0.76865591		-0.26699981		0.08008615		0
C		0.28703222		3.45236782		4.38298861		-0.81957618		0.25066189		0.02193313		0
C		-0.88267113		1.32496914		4.38291631		-0.82056936		0.25039849		0.02303807		0
C		0.35026305		2.02938067		4.38618672		0.76863893		-0.26739136		0.07865850		0
C		3.37865801		0.23995212		1.58369125		-0.76803972		0.26901434		-0.08057618		0
C		3.27101855		3.07180099		1.58672118		0.81989238		-0.25240479		-0.02205143		0
C		4.54838094		2.36733022		1.58365761		-0.76786544		0.26949421		-0.08016570		0
C		2.79733029		3.45236832		4.38300016		-0.81989138		0.25069959		0.02191913		0
C		1.51998145		4.15676680		4.38614756		0.76854686		-0.26695896		0.07918462		0
C		2.86055108		2.02938067		4.38617518		0.76897032		-0.26744492		0.07885809		0
C		1.62763046		1.32498169		4.38286611		-0.82066812		0.25001314		0.02370115		0
C		4.61161629		0.94438926		1.58667097		0.81892976		-0.25239597		-0.02108991		0
24
Lattice="4.957442850701001 0.0 0.0 -0.8246854905426635 4.548676900446449 0.0 -0.15429049384236723 -0.48683576026739034 6.578888556208328" Properties=species:S:1:pos:R:3:force:R:3:tags:I:1 config_type=shaiducarbon energy=-631.6171788036199 unit_cell=conventional pbc="T T T"
C		0.50585301		0.81058157		0.13100786		-3.64776605		2.42719848		-6.62560649		0
C		-0.28460977		3.00914897		1.17029957		-3.00100568		-2.46741517		-5.24889218		0
C		1.16949944		2.72545881		1.70419931		-1.88665833		1.41265201		-0.92070999		0
C		1.82643944		0.59329387		3.74264875		3.70284930		3.46754164		7.87490839		0
C		1.30277930		2.74218919		3.13446867		4.53414508		-4.14987361		4.94009325		0
C		-0.08132041		2.15928909		3.67023885		-0.08209129		-2.86887419		4.73230439		0
C		1.78472950		3.95960875		3.62118842		10.06011685		-1.23746320		4.67088251		0
C		0.53688759		0.85677551		4.42444834		-0.22562025		4.42378305		2.33764870		0
C		0.75650181		1.45771921		5.81569767		2.36588117		-0.93429729		-0.31739270		0
C		-0.02007715		2.66223902		6.26078779		-0.32255940		-0.52693022		0.66929443		0
C		0.55649775		3.98249875		6.60501775		0.16018521		-2.73754642		-6.31915375		0
C		4.01985854		0.61935763		0.58893083		-0.11949470		1.89347106		-0.92511888		0
C		2.38670930		2.74194875		1.07388970		7.89994805		-0.02129682		-1.91645888		0
C		3.34570878		3.96799873		1.46957940		-1.23171758		-5.61873675		-2.59485929		0
C		3.63649849		1.90930954		1.47373969		-0.24660087		4.07148329		-3.24967684		0
C		3.73569841		1.49739958		2.90349892		-1.58791112		-0.86275314		4.00517491		0
C		3.15004892		4.38371849		2.97239895		-6.88184617		0.94562504		7.45004303		0
C		2.48837902		1.83809934		3.67678862		0.44376251		5.61037767		3.54702263		0
C		3.78575867		4.21013858		4.48978843		-7.04984806		-2.77740064		0.18651768		0
C		2.37127926		3.91593864		4.97951834		5.10158494		-3.18604889		-5.76918612		0
C		2.80274881		2.47060907		5.06997829		-0.08984633		4.55597140		-6.33898319		0
C		4.20024848		2.88841888		4.89318844		-3.58487144		-1.17968469		-0.08565002		0
C		2.29818920		1.68977959		6.21513767		-3.06152387		-2.60346837		0.87225371		0
C		2.72910897		0.08683407		6.19104748		-1.24911193		2.36368575		-0.97445532		0
24
Lattice="4.909126873893 0.0 0.0 1.045143293198072 5.896082286254818 0.0 0.8137074158552604 -0.01593993495953057 5.039508374536725" Properties=species:S:1:pos:R:3:force:R:3:tags:I:1 config_type=shaiducarbon energy=-611.9498271219295 unit_cell=conventional pbc="T T T"
C		4.14349846		0.84689360		0.46727181		-0.01234502		-1.02716519		-0.79156179		0
C		1.67560920		0.91959974		2.23446912		0.36994091		1.97642074		0.90724987		0
C		2.47777919		0.47951959		0.17577669		0.29514623		1.69063854		0.59945704		0
C		0.88759763		0.30841491		3.45408867		0.32152974		-1.26646615		-0.57705058		0
C		0.94842564		2.29021912		1.68765915		-0.09885003		-0.94431668		-0.17112176		0
C		4.17287812		1.94188908		1.40620957		-0.23849708		1.44412569		0.54392208		0
C		5.79433769		1.42649949		4.36119811		0.05733387		1.63205052		1.16537941		0
C		2.56989895		1.86140935		4.68151815		-0.65735087		-1.58822121		0.13486302		0
C		3.34642857		1.30485967		2.55162915		-0.20491358		-1.47228415		-1.81273590		0
C		3.47991853		3.28178862		0.89134280		-0.03339614		-1.70412274		-0.07206990		0
C		1.75859947		2.93568880		0.61989361		0.02493613		1.17355310		0.41522819		0
C		3.31693846		2.37320890		3.49273872		-0.41330860		1.98784874		0.21663681		0
C		5.12144808		2.76679863		3.78785824		0.46172727		-1.50085626		-0.03387434		0
C		5.88901756		3.37115879		2.68505873		0.33307101		0.86341557		-0.51487837		0
C		1.08781931		4.29044827		0.00727729		0.21395040		-1.36421358		-0.26531069		0
C		3.52484833		4.35703812		1.84721902		0.26893496		1.23203841		0.68085895		0
C		2.68952898		3.79027844		2.97347877		-0.10585620		-1.81947740		-0.42964002		0
C		5.05970796		3.84361856		4.75551784		0.11942145		1.04116176		0.62755963		0
C		5.94806749		5.38161757		0.98335850		-0.07611084		1.04841062		0.02936651		0
C		5.17064784		4.73530795		2.14284910		-0.49441551		-1.20676633		-0.27465330		0
C		2.75825872		5.75284771		1.28781960		0.32556300		-1.51034212		-1.00572775		0
C		2.68138915		4.86708806		3.92672860		0.32114696		1.62034245		0.65481178		0
C		4.35232830		5.25272795		4.26662820		-0.43325334		-1.00797710		-0.42937610		0
C		5.14851799		5.85491778		3.10343857		-0.34440471		0.70220278		0.40266721		0
16
Lattice="4.868568102728 0.0 0.0 0.016080880443310585 4.7930079257736615 0.0 -1.5511696146420655 -0.8541561936469085 4.289344818410244" Properties=species:S:1:pos:R:3:force:R:3:tags:I:1 config_type=shaiducarbon energy=-394.1911228646036 unit_cell=conventional pbc="T T T"
C		-0.02931560		0.67308782		2.01157890		1.86358423		0.37441469		0.50701986		0
C		-0.30139698		1.92197924		1.36771953		-0.55205463		1.04331380		2.82147447		0
C		-0.00231452		3.19124853		2.08636887		0.28463470		-1.04376853		1.20124775		0
C		-0.05200312		4.29701817		1.24230960		0.16764270		1.18906620		-3.48423255		0
C		0.51084668		-0.27608384		4.26295815		-0.31333986		-0.78645826		1.23274163		0
C		0.28644902		0.89696357		3.55760828		-0.79255923		-0.51052273		-1.93756097		0
C		0.62378383		2.15478929		4.12920836		2.43903157		0.26771785		1.89983146		0
C		0.24411293		3.36249847		3.53628834		-1.20663032		0.90642261		-1.50557296		0
C		2.18410927		0.75727948		1.39705947		-0.93691675		0.02910429		-0.29244917		0
C		2.44192916		1.99171904		2.11946929		0.83195377		-2.21369129		1.63257858		0
C		2.33165902		3.15228879		1.46899938		-0.58888119		0.08313943		-4.00097792		0
C		2.40780878		4.31919790		2.14072887		0.02856529		1.70769727		3.96603257		0
C		2.70054896		-0.27681072		3.65137837		-1.55500821		3.83224232		-2.16073873		0
C		3.10183874		0.90644267		4.33324810		-0.53439098		-0.46948935		-3.19152940		0
C		2.54152887		2.09472918		3.53364860		-0.96870473		0.17998856		1.65814983		0
C		3.02539881		3.34027832		4.09064833		1.83307366		-4.58917685		1.65398555		0
16
Lattice="4.9332525825 0.0 0.0 0.6785343599547975 4.650582142775332 0.0 -0.055158697124932494 -0.30838748543724 4.4017538157666145" Properties=species:S:1:pos:R:3:force:R:3:tags:I:1 config_type=shaiducarbon energy=-398.4387483388507 unit_cell=conventional pbc="T T T"
C		0.99188470		-0.01467889		0.28599101		3.62447095		-2.24320384		2.01293742		0
C		0.58444589		1.86582914		2.98662861		-1.83045938		0.74337976		-1.37436745		0
C		1.47191928		3.22515877		0.82633757		-2.17235636		2.64634306		1.44608605		0
C		0.81233749		3.38780860		2.37549925		1.95536857		-0.36184904		-1.88029245		0
C		2.17767927		0.71200451		1.04450968		-0.19839213		0.59223942		5.77629866		0
C		1.74859927		0.96134441		2.64165908		-0.10395218		-0.80870925		-6.33647078		0
C		2.02318904		4.15289836		3.28929845		-0.26430419		-0.11569298		-0.54611661		0
C		2.65835913		2.33483889		0.91602459		-0.10439014		-0.60471273		6.76563748		0
C		3.11402887		1.97794914		2.37319887		-1.77242508		-0.95001291		-6.10956043		0
C		3.33725855		3.38194888		3.11108865		0.98502415		-0.55505909		-1.01345335		0
C		3.97416859		3.22983895		0.11168588		-0.54582437		2.18638548		0.63302789		0
C		4.04285821		4.50269803		0.98595049		3.21946738		0.67872232		5.98495210		0
C		4.81483824		0.73823264		0.65227071		-0.96607348		-1.31715732		7.48664011		0
C		4.29992852		1.05327952		2.23690889		-1.08331486		-3.30081185		-6.33955350		0
C		5.21785784		2.31963904		0.06702268		1.13284784		1.27881163		-0.04339393		0
C		4.55003802		4.15600828		2.36909885		-1.87568672		2.13132734		-6.46237120		0
16
Lattice="4.550788318219 0.0 0.0 -0.6421571887955649 6.458196632340676 0.0 -0.05895546266252715 0.028988521587055033 4.684749873942413" Properties=species:S:1:pos:R:3:force:R:3:tags:I:1 config_type=shaiducarbon energy=-311.35315088369174 unit_cell=conventional pbc="T T T"
C		1.53915943		2.11530926		0.06721059		-0.32711394		-1.68426760		-2.74780370		0
C		0.38024794		2.36212900		0.86981356		-0.24899211		-5.34260378		2.10365221		0
C		1.49399923		2.01078903		3.21520886		0.77399739		-0.76645914		3.66459416		0
C		0.37187176		2.11274898		2.43656897		-0.19895797		-1.19398081		-3.62443887		0
C		1.20155966		5.51628766		1.61754949		0.37365876		2.91310038		2.86697430		0
C		0.03732101		5.43396800		0.86599363		-1.16068559		3.49661340		-2.67405728		0
C		0.01343939		5.58561801		4.04057851		-0.84703475		1.61319744		2.22865641		0
C		1.16720940		5.58966776		3.23290869		0.30877228		2.40860499		-2.59358762		0
C		3.78583857		2.22297909		0.04678347		0.62626089		-3.39097295		-3.20099138		0
C		2.68447908		2.05531940		0.86465479		-0.02885163		-1.17120854		3.22659656		0
C		3.77963858		2.09086925		3.18891895		0.16712398		-1.58771369		4.25932362		0
C		2.64847916		2.00748925		2.44001893		-0.70931028		-1.16059747		-3.38486366		0
C		3.46698850		5.57690780		1.70935937		0.30726673		1.63785652		2.02141507		0
C		2.36863890		5.67938792		0.86931070		0.39674141		0.46765637		-3.04248708		0
C		2.32621918		5.68066760		4.02503847		-0.23452870		1.31240449		3.03709085		0
C		3.42370868		5.58452764		3.19784896		0.80165354		2.44837041		-2.14007358		0
16
Lattice="9.383903678655 0.0 0.0 -0.4934431910383945 7.9383602364765915 0.0 -0.19397467294147752 0.13339219079208084 2.4812730429025978" Properties=species:S:1:pos:R:3:force:R:3:tags:I:1 config_type=shaiducarbon energy=-258.93154611425336 unit_cell=conventional pbc="T T T"
C		-0.35550731		0.83636763		0.53110455		0.07180494		2.69054397		0.18924092		0
C		0.45474397		1.06725952		1.90502910		0.36745203		-2.41801739		-1.13212356		0
C		1.05322964		4.95683786		1.47661918		-1.22320872		1.82121854		-2.16986372		0
C		2.89848891		0.94533258		0.14646115		0.08627954		-1.14475337		-0.04376782		0
C		1.92231894		0.96028583		1.27763913		-0.45668760		0.63864466		1.07592768		0
C		1.87716923		4.98135800		0.23198136		1.74016604		-0.25104264		2.04776283		0
C		5.26791802		1.04838943		-0.10613852		0.09769328		-1.92220155		0.26735480		0
C		4.28535855		0.88935572		1.00322000		-0.61335773		3.31645984		-0.30429217		0
C		3.44085883		5.03173830		0.29753731		0.11368227		-1.71962139		-0.95335512		0
C		4.19602848		4.98711784		1.54230932		0.99013666		1.15981215		1.11059192		0
C		6.65774735		1.18005967		0.76265050		0.09661944		-3.86574308		-0.35440080		0
C		6.49903738		4.87334833		0.14654186		0.75508946		0.86808757		2.10406480		0
C		5.68208787		4.97320808		1.39619912		-1.68202789		-0.23890398		-2.31027023		0
C		7.48882715		1.01347004		2.14617947		0.35739821		2.14923684		0.32978887		0
C		8.09661696		4.93633778		0.14860162		-2.07651932		0.17649685		-2.86470606		0
C		8.81370672		5.07661776		1.33098944		1.37547939		-1.26021701		3.00804765		0
16
Lattice="4.1413053346719995 0.0 0.0 0.3586825963412765 6.507845985559644 0.0 0.21398538794783692 0.21509525777752897 5.076842774995744" Properties=species:S:1:pos:R:3:force:R:3:tags:I:1 config_type=shaiducarbon energy=-315.1631318331846 unit_cell=conventional pbc="T T T"
C		0.67907178		1.09235128		0.63706280		-1.34971982		-0.00884324		-0.77282051		0
C		2.07239740		1.10065087		0.64356092		1.34058888		-0.07196033		0.78306286		0
C		3.74873030		4.36101898		0.69876162		1.34812800		0.01048368		0.77253146		0
C		4.30344821		1.25476168		4.45133629		1.33982674		0.00534079		0.78024953		0
C		2.46230751		4.46043101		3.23071056		-1.34056747		0.07096600		-0.78027930		0
C		1.83840122		4.51542672		4.50663804		1.35150659		0.09784076		0.76586090		0
C		2.80320651		1.15315641		1.90617741		-1.35248809		-0.09823212		-0.76813364		0
C		0.33816450		4.41381979		1.96129156		-1.33650669		-0.00586498		-0.77900335		0
C		0.78607110		1.19986122		3.17550986		-1.35301867		-0.00840258		-0.77286438		0
C		1.73148804		4.40782111		1.96808951		1.35022466		0.09916019		0.76483585		0
C		0.44516630		4.52122993		4.49984050		-1.33861047		-0.00343900		-0.78155935		0
C		2.91021991		1.26076036		4.44453834		-1.35275116		-0.09932256		-0.76831299		0
C		4.19644971		1.14725836		1.91288881		1.33969379		0.00424302		0.78096226		0
C		2.35540758		4.35291693		0.69216162		-1.33939559		0.07005336		-0.78034009		0
C		3.85563975		4.46862624		3.23720910		1.35005463		0.00939652		0.77236114		0
C		2.17930106		1.20816081		3.18200840		1.34303467		-0.07141951		0.78344962		0
16
Lattice="4.821637511306 0.0 0.0 0.32087515473990297 6.065967147123762 0.0 -2.2697858584472996 1.4797316223947437 4.522479011917019" Properties=species:S:1:pos:R:3:force:R:3:tags:I:1 config_type=shaiducarbon energy=-305.7694400803036 unit_cell=conventional pbc="T T T"
C		0.10300802		1.45394936		0.16026014		0.23228991		-0.27728324		-1.91511146		0
C		1.35739945		1.66757924		0.85045682		0.05144615		1.62231223		1.14216999		0
C		-0.96132362		2.18356919		2.42524895		0.44707566		-0.23975126		-2.62693666		0
C		0.25820592		2.40255929		3.10227870		0.04216262		1.34517057		1.78239360		0
C		0.56178393		4.59744824		0.70048171		-8.72207610		1.28792459		3.03197618		0
C		0.63921895		5.07832799		2.04396929		-8.50566658		-1.01933859		-1.90199783		0
C		-0.83848951		5.77167802		4.22403845		0.81656319		-1.62169136		-5.97633072		0
C		2.56938891		1.45074924		0.05525597		0.36009019		-0.13953375		-1.63955016		0
C		3.73833851		1.71584914		0.88547059		-0.45662358		0.52145414		1.91504610		0
C		1.44378969		2.18335897		2.37034931		0.04599699		-0.63659452		-1.49406563		0
C		2.66341904		2.47156898		3.11637862		-0.74110282		-0.11054403		2.23749456		0
C		3.84007844		4.65865845		0.70804397		7.94405302		-0.24135406		0.95029371		0
C		3.98674831		5.08508793		2.05329916		7.99465016		-0.83889284		-1.72301392		0
C		3.09231864		5.48209819		3.02144877		0.00571370		0.55951507		5.33188849		0
C		1.51238954		5.40511785		3.02746907		0.67309873		2.07151256		5.35237836		0
C		0.67404178		5.83559799		4.18603865		-0.18767125		-2.28290549		-4.46663460		0
16
Lattice="9.303568259931 0.0 0.0 0.6124073807099579 9.214858736572557 0.0 0.05359785674546249 -0.17318592315861553 2.4959426856377687" Properties=species:S:1:pos:R:3:force:R:3:tags:I:1 config_type=shaiducarbon energy=-264.09514581611245 unit_cell=conventional pbc="T T T"
C		1.22725974		2.70942888		1.35927923		-1.04256440		1.22125632		0.12619617		0
C		1.38527992		6.07977766		0.25734786		-1.20335355		-3.09393404		-2.17747968		0
C		2.05351894		5.89849763		1.43909920		3.48371357		-1.96259247		1.65568779		0
C		3.47527908		2.64787926		0.01192159		0.68234283		3.82320199		0.06522142		0
C		1.93483890		2.68678864		0.09675339		-0.37039669		3.31842192		0.05134696		0
C		3.54366868		5.79957744		1.18171970		-1.51180055		0.60006292		1.27216581		0
C		4.47128839		2.67474889		1.21669926		-0.63099434		0.17165075		0.34441252		0
C		4.29126807		6.03729757		-0.02835728		-0.14336297		-3.24367983		-1.41122339		0
C		6.67712721		2.57183933		0.10880895		0.65885697		4.54517860		-0.36345382		0
C		5.95057808		2.56728896		1.34044974		0.17178992		1.88406068		0.94434040		0
C		5.80068829		6.05717743		0.03590898		-2.15190394		-2.79878804		2.14342937		0
C		6.61141797		5.93976733		1.35678960		0.37577966		-2.13609133		-2.18652980		0
C		9.04869701		2.76935874		1.24658976		3.07377070		0.56578183		5.06288430		0
C		8.27916724		2.60850935		2.69508929		-2.51487939		1.50007906		-4.97714460		0
C		8.98156618		6.15035732		0.28204325		2.21779020		-5.38364389		-0.86725439		0
C		8.31678715		5.79563738		1.50687941		-1.09478800		0.98903553		0.31740094		0
16
Lattice="5.080692407417 0.0 0.0 2.187771554095797 4.264961837944163 0.0 -1.9867793624583805 -0.2615184802869752 4.256497404393407" Properties=species:S:1:pos:R:3:force:R:3:tags:I:1 config_type=shaiducarbon energy=-435.596153292763 unit_cell=conventional pbc="T T T"
C		-0.30818413		0.11514119		1.62072919		-0.44399099		0.42440101		0.36803496		0
C		-1.30871930		-0.01302639		3.74547831		-0.54074230		0.85210381		0.85230445		0
C		3.29716869		2.30235895		0.98946840		0.23503485		-1.09364089		-0.18474108		0
C		2.14437939		1.67751914		1.70305927		0.25036145		-0.54156739		-0.41063042		0
C		1.11584961		1.54458943		3.80787836		0.11937439		-0.38672127		0.46370782		0
C		2.30380898		2.12159909		3.10777876		0.84532086		-0.54551849		0.52539508		0
C		3.11807885		3.89650850		0.92067380		0.26833087		0.54579876		-0.79285189		0
C		2.12701917		3.76046839		3.10582879		0.19766348		0.17206313		-0.31507842		0
C		2.26454895		0.15035903		1.67779959		0.40810926		0.25268906		0.51091156		0
C		1.24194935		-0.00488509		3.81182860		0.58949313		0.07393585		0.82617407		0
C		4.65715827		1.65712931		1.66282933		-0.89354761		-0.24004952		-0.04957436		0
C		5.82348761		2.27738938		0.97350741		0.03066526		0.04321195		-0.28426516		0
C		4.78736828		2.17597927		3.10588875		0.14854062		0.01002571		-0.43192336		0
C		3.67314856		1.58391958		3.81726850		-1.29397893		-0.90606270		-0.29869676		0
C		5.66102789		3.88992850		0.96156880		0.23805720		0.60347607		-0.76258846		0
C		4.66048815		3.74359846		3.09588893		-0.15869154		0.73585490		-0.01617804		0
16
Lattice="4.353568283735 0.0 0.0 -0.595076187998886 5.627052310251743 0.0 -0.11474699925440339 -0.7489878875337693 4.931251966440365" Properties=species:S:1:pos:R:3:force:R:3:tags:I:1 config_type=shaiducarbon energy=-331.26747537112743 unit_cell=conventional pbc="T T T"
C		1.10980118		0.96780345		2.86475677		0.04910935		0.08420850		0.17423868		0
C		0.40897551		1.15835827		1.62001979		-0.05314113		-0.08950940		-0.17708168		0
C		2.61444749		1.34560045		0.38720201		-0.05313364		-0.08961261		-0.17688236		0
C		0.35160288		0.78385475		4.08563620		-0.05293637		-0.08954045		-0.17698151		0
C		2.55707704		0.97111217		2.85282799		-0.05298224		-0.08953545		-0.17686303		0
C		1.16716815		1.34227955		0.39913558		0.04910224		0.08431725		0.17417206		0
C		3.25789966		0.78054386		4.09757934		0.04902547		0.08425019		0.17400547		0
C		3.31526793		1.15504955		1.63194857		0.04915380		0.08428886		0.17409886		0
C		1.78535786		3.51437925		4.62069670		0.05318557		0.08953663		0.17689143		0
C		1.14192050		4.07941799		0.91032373		-0.04922340		-0.08420454		-0.17403944		0
C		3.23263851		3.51768927		4.60875791		-0.04915587		-0.08427349		-0.17399385		0
C		-0.30535971		4.07610885		0.92225773		0.05315246		0.08956433		0.17676296		0
C		1.84273789		3.88885622		2.15507072		0.05297081		0.08950681		0.17701151		0
C		3.29000984		3.89216710		2.14312714		-0.04904660		-0.08430288		-0.17392765		0
C		-0.36273365		3.70161577		3.38787849		0.05293106		0.08958929		0.17679451		0
C		1.08453742		3.70492971		3.37595015		-0.04901149		-0.08428303		-0.17420597		0
16
Lattice="7.348854039879001 0.0 0.0 0.9347301407483697 4.268229124069804 0.0 0.41016893938180654 -0.960458478741986 4.011291140273514" Properties=species:S:1:pos:R:3:force:R:3:tags:I:1 config_type=shaiducarbon energy=-349.4354863147112 unit_cell=conventional pbc="T T T"
C		1.78718913		-0.30011397		1.36907975		-2.39471918		-0.19308997		-0.39681897		0
C		2.00099889		-0.88928483		4.08788825		0.43526251		0.60172546		0.00589033		0
C		1.90909927		2.86026879		3.34376901		0.00636714		-1.17485386		-0.52189606		0
C		1.83912936		3.10059910		1.98279945		0.82814976		0.68346088		0.14418691		0
C		2.78927886		0.19533695		2.08309882		-0.19716602		1.48158318		2.19908792		0
C		2.88919903		-0.03065574		3.45408853		-1.70175643		-0.47111414		-0.84310977		0
C		3.71733845		0.95977357		1.45749969		-0.51093609		0.48854713		-0.64258411		0
C		3.96952834		0.37627602		4.14780860		0.44811771		-0.63884213		1.04075325		0
C		4.92197804		1.21574958		2.09600928		-0.71350163		-0.59639105		0.44627806		0
C		5.04647791		0.86075952		3.43759844		-2.26253146		0.09647945		-0.74966765		0
C		5.95927760		1.70652957		1.34556930		0.66609821		0.43371008		0.34214039		0
C		6.21632729		1.07121967		4.05077800		2.30701837		0.89499173		-0.10442599		0
C		7.17027689		1.93110908		1.97130952		0.33452208		0.83282906		0.43505445		0
C		8.08590662		2.69396863		1.30628967		0.80855630		-1.12599646		-0.45263568		0
C		7.26519689		1.64872937		3.32757875		-0.79954978		-0.38637628		-0.37818593		0
C		8.32411679		2.10019887		4.02733810		2.74606851		-0.92666307		-0.52406715		0
16
Lattice="4.827423003447 0.0 0.0 0.6639782421631107 4.550816492772491 0.0 -0.053975416601540906 -0.3017718667914789 4.307326103901627" Properties=species:S:1:pos:R:3:force:R:3:tags:I:1 config_type=shaiducarbon energy=-428.21177413987385 unit_cell=conventional pbc="T T T"
C		0.67668595		1.86926943		3.00853884		-3.85945700		2.40043381		-0.23976052		0
C		1.45377940		3.10681890		0.86436650		-3.06648549		2.54212377		1.50925368		0
C		0.94913653		3.32868871		2.35945899		0.96437836		-1.97789339		-2.10558803		0
C		1.78574921		1.06405961		2.70873898		0.20523008		-0.11476005		-4.57840006		0
C		1.68008948		4.55405811		0.32730169		1.53639143		-1.08800146		1.91065461		0
C		2.04482928		4.20511846		3.25083879		0.98454914		-1.16284736		0.52652871		0
C		2.22357910		0.69787785		0.91570084		0.05841755		0.02919950		3.12987247		0
C		3.07731900		2.10635913		2.38202912		-0.67281774		0.53973802		-4.87018827		0
C		2.63199888		2.36766899		0.88369261		3.36782950		-0.17891567		5.18677878		0
C		3.47460867		3.31638892		3.19358893		-0.51728990		-0.94331752		-0.84612893		0
C		3.79968878		3.16305886		0.21403104		-0.76274186		-0.53585097		2.01934266		0
C		4.04506863		4.35316828		0.96395141		2.03369601		0.35736164		3.32022297		0
C		4.65140840		0.90902982		0.65543998		0.20970877		-1.54874034		6.04104631		0
C		4.30000821		1.16425954		2.26357913		-0.30444299		-0.39089133		-5.28145167		0
C		5.03756797		2.25829938		0.14798272		0.43852693		2.36878433		-0.24870470		0
C		4.52310805		4.06184826		2.33248914		-0.61549280		-0.29642297		-5.47347802		0
16
Lattice="4.770883616059001 0.0 0.0 0.09022218006329176 4.85530917252878 0.0 -1.118562289086729 -1.2242946117858287 4.033438593757528" Properties=species:S:1:pos:R:3:force:R:3:tags:I:1 config_type=shaiducarbon energy=-428.97739219755147 unit_cell=conventional pbc="T T T"
C		-0.18971610		0.39891791		1.69915926		0.62860674		-0.49771354		-1.74129531		0
C		-0.31639975		0.42358386		3.13835881		-0.21467479		-0.43308626		1.08683115		0
C		-0.17540297		2.87697879		1.69503913		0.45075306		-0.25615548		0.02662348		0
C		-0.25153005		2.82154876		3.21788848		-1.18915576		-0.45897658		0.28198466		0
C		1.42631959		0.42820970		1.19170948		-1.01665060		-0.69469030		0.00103809		0
C		0.37908582		-0.85748284		3.69561853		-0.25937213		0.79747441		-0.12089715		0
C		0.47547485		1.60210947		3.71676833		-0.22443189		0.33587815		0.17515167		0
C		1.46961917		2.86489891		1.19995929		-0.61171195		0.39335233		-0.45707908		0
C		2.06441907		-0.76377553		3.19274879		0.19345001		-0.17261305		0.45736170		0
C		2.23969895		1.62845954		1.68804931		0.22033588		-0.09121837		0.32569731		0
C		2.11836917		1.61874936		3.26376864		0.23384248		0.17964486		-0.10676661		0
C		2.21284889		4.05817849		1.69388935		-0.35426970		0.33254522		-0.01741222		0
C		2.81400885		0.41042576		3.73328847		0.67583001		-0.35579595		-0.59971452		0
C		3.84243865		1.59833952		1.15133969		-0.02964997		0.06427956		0.84447425		0
C		3.94300840		4.07322824		1.12980965		0.67727392		0.71089350		-0.15224612		0
C		2.94317862		2.85445879		3.67994856		0.81982469		0.14618151		-0.00375128		0
24
Lattice="5.709248848017 0.0 0.0 0.31380886293125443 4.542421114703526 0.0 -0.08896722479864891 1.6547401398650072 7.145496034468397" Properties=species:S:1:pos:R:3:force:R:3:tags:I:1 config_type=shaiducarbon energy=-496.0429766214541 unit_cell=conventional pbc="T T T"
C		2.09752893		3.21701842		0.18673982		-0.16251264		-4.49469638		-5.95150395		0
C		1.49371934		3.81512847		1.27451958		-4.14761067		0.40565233		4.50216258		0
C		2.08970897		4.99601808		2.08918886		-0.59167931		-0.96258076		-0.63225337		0
C		2.08537907		2.54133910		4.29250845		3.24190659		2.32164533		-1.57048485		0
C		1.28567945		5.35320753		3.07739874		-2.81365635		1.23710463		5.08085254		0
C		1.03263983		1.67871956		4.19776803		-4.19090838		-4.51924021		-2.28296289		0
C		2.18969904		3.50554845		5.39704771		1.77326440		1.19275721		-0.96548902		0
C		1.33486920		3.79827819		6.46557702		4.11132289		4.32659301		1.10443961		0
C		0.13575566		3.21334852		6.79565724		-3.76339143		-0.14112469		2.79497974		0
C		5.22926773		1.99454892		0.87297270		0.82111903		-1.94660473		-3.46144228		0
C		3.96126811		1.26447930		0.99449634		2.71934483		-0.49890622		-3.68392816		0
C		2.93931885		1.35186963		2.02999936		-2.24694302		1.27212406		2.87556033		0
C		5.86340770		3.08987859		1.52754949		4.49476769		0.42649088		-1.45307314		0
C		5.25244785		3.58170868		2.63151897		-0.86716227		2.13539678		4.89955458		0
C		4.03703841		3.31650837		3.39588862		3.30186923		5.62753670		4.47121969		0
C		3.02553878		2.40577869		3.13250841		-3.75789409		-2.02851587		1.59098413		0
C		5.85697737		4.60081817		3.32223874		-0.73699418		1.04718523		2.56285271		0
C		4.09780822		4.30265835		4.53375790		2.47659617		-5.19651347		-8.02501602		0
C		3.26536834		4.35728787		5.49949790		-5.31810945		0.41331539		6.06027983		0
C		5.21057793		5.00817764		4.48015833		4.60424302		0.71424445		-3.46448963		0
C		5.60050764		1.52479935		5.07310778		1.30692948		-1.94698745		-4.13335892		0
C		3.83456846		1.89562933		6.91174683		3.61057875		3.02847123		0.52907411		0
C		3.23163867		5.31784787		6.61381710		-2.07968860		-4.37247360		-2.69827179		0