16
Lattice="4.982610508821 0.0 0.0 -2.233823873756666 4.234391819153386 0.0 -1.9718232653713312 -1.1712024609824465 4.462929215361479" Properties=species:S:1:pos:R:3:force:R:3:tags:I:1 config_type=shaiducarbon energy=-4060.172040828412 unit_cell=conventional pbc="T T T"
C		-0.43490267		0.28017667		1.37178941		-3.04216632		1.38251460		-1.29927533		0
C		0.74264664		-0.41089297		1.84189921		1.88461467		1.25659807		0.97085907		0
C		-1.44672936		-0.23905369		3.55211898		-0.81333466		-2.05480769		0.46240889		0
C		-0.19151610		-0.95863483		4.08047848		-0.92097320		-0.36883043		0.47458693		0
C		-0.37987273		1.70898956		1.86493929		1.22260780		0.52847755		0.76373830		0
C		-1.65883959		2.42694936		1.33144969		2.07741902		-1.42624704		-0.07072108		0
C		-2.59908908		1.80394915		3.65553854		1.14732533		1.51353735		-0.94230849		0
C		-1.34222957		1.12699973		4.13340875		0.69679932		1.31666192		-0.39459779		0
C		1.98858925		0.32409490		1.35624964		0.51628717		-1.30325077		-1.44756742		0
C		3.26099900		-0.34694166		1.82013915		0.47414470		-1.48258176		1.41501749		0
C		1.02604955		-0.26830710		3.57994885		0.17737592		-0.96443748		0.27528180		0
C		2.28262904		-0.96917255		4.03853835		0.65723772		0.43267149		0.58275049		0
C		1.18658976		1.13760970		4.17433841		-1.57860354		0.84274887		-1.75966565		0
C		0.89611652		2.38313926		1.41898967		-1.91592328		2.05584256		-2.08231543		0
C		2.12991901		1.73317914		1.79755945		-0.61925479		-0.77900578		2.91782253		0
C		-0.10917298		1.84522958		3.59715879		0.03644464		-0.94989171		0.13398569		0
16
Lattice="4.490449969148 0.0 0.0 0.09533674329498118 4.723050787099897 0.0 -1.3509698350180526 -1.5625957611640593 4.299179252712141" Properties=species:S:1:pos:R:3:force:R:3:tags:I:1 config_type=shaiducarbon energy=-4055.7079338765684 unit_cell=conventional pbc="T T T"
C		1.37844959		0.44262769		1.45188955		-0.04602304		0.87422203		-2.35601600		0
C		0.08552242		-0.98053061		4.02376828		3.49662149		1.06781956		4.45825210		0
C		-0.11375792		0.55356291		2.00441922		-0.52579949		-5.95829603		-2.53481631		0
C		-0.14594501		0.27830282		3.45831870		-2.52341243		0.87677179		1.01111589		0
C		0.16254800		1.40560918		4.19321810		1.97127660		-2.88281410		-0.22143103		0
C		-0.04490450		2.78512885		1.96822933		-1.38176178		-1.77345423		-0.69568474		0
C		1.53523949		2.77533877		1.37580921		-2.58370999		1.33807536		0.79856880		0
C		-0.09472739		2.54122871		3.47916830		-2.37528669		2.42790564		-0.96512371		0
C		1.98704926		-0.97073964		3.57853837		-0.92936066		1.17996217		-3.57363432		0
C		2.40622917		0.23805088		4.05791815		0.32894154		-0.96896700		3.93978926		0
C		3.56843845		1.62232952		1.39451957		4.58907635		2.05530109		0.24195514		0
C		2.17987906		1.55502935		1.97042920		-1.71733446		1.38087732		-1.32053786		0
C		2.04921909		1.48050944		3.52482855		-0.71118260		-4.59265687		-3.30288615		0
C		3.69846841		3.98269818		1.55106923		2.36628654		1.96278141		-3.34237318		0
C		2.21813904		3.96339822		1.87970909		-0.69641108		-1.38063461		2.97954808		0
C		2.52775871		2.53058904		4.09879831		0.73807970		4.39310646		4.88327403		0
16
Lattice="4.482830349525 0.0 0.0 0.09517497115076529 4.715036478800045 0.0 -1.3486774419759944 -1.5599442706884086 4.291884190786982" Properties=species:S:1:pos:R:3:force:R:3:tags:I:1 config_type=shaiducarbon energy=-4055.763459954888 unit_cell=conventional pbc="T T T"
C		1.40667944		0.48662379		1.40882940		0.81455645		-1.15506513		-0.76984776		0
C		0.20052193		-0.99106638		4.03623824		1.31757466		4.41915998		3.41938498		0
C		-0.09578239		0.41636080		1.84696914		0.51669366		0.23533351		2.95536581		0
C		-0.15539373		0.36289005		3.55604821		-2.59797833		-9.25529126		-6.34069753		0
C		0.11389706		1.38512958		4.20392792		2.34864284		7.59741207		2.25363819		0
C		-0.03602492		2.72179886		1.97690891		-1.79599768		0.36272714		-2.72314410		0
C		1.46896926		2.85729868		1.43357956		0.46602669		-2.08774818		0.18490051		0
C		-0.17538805		2.63410887		3.43228847		-0.22397643		-3.16733054		1.69952724		0
C		1.98570915		-0.95740973		3.49706851		-1.35523055		1.16780444		-0.14822858		0
C		2.37093894		0.22933308		4.05818797		1.65526515		-2.20889196		5.72280028		0
C		3.62258821		1.56325932		1.36936929		2.77104893		2.55816271		0.02578073		0
C		2.23558884		1.55735947		1.95507932		-3.29326610		2.73099343		0.13597495		0
C		2.09079925		1.45190940		3.63095855		-1.61671708		-2.28074664		-7.41923062		0
C		3.73780815		3.96083838		1.38809945		0.22996299		0.39579464		2.44451832		0
C		2.20960905		4.00386817		1.99832922		-0.58932661		-2.66253981		-2.08884989		0
C		2.43927879		2.54485886		4.20331826		1.35272115		3.35022482		0.64810747		0
16
Lattice="5.307559054149 0.0 0.0 1.3406788019599292 4.314440449290964 0.0 1.163528403409598 0.3204810308076249 4.740000534252632" Properties=species:S:1:pos:R:3:force:R:3:tags:I:1 config_type=shaiducarbon energy=-4059.807931395393 unit_cell=conventional pbc="T T T"
C		1.28995977		0.76785253		1.03810972		0.56300878		1.08826088		-0.66519478		0
C		1.84091943		2.19590915		1.04612944		-1.57421235		0.21671228		-0.32519698		0
C		2.36877900		2.36705935		3.40388889		-0.44530641		0.21944357		0.83230607		0
C		1.87375942		0.98423853		3.37998895		-0.02576530		-1.01011393		0.68182520		0
C		2.69130928		4.44304844		2.24116936		0.34845854		0.32815092		0.01015278		0
C		2.19878903		3.04972874		2.23878892		0.95746644		-0.10819288		-0.83489903		0
C		2.81957918		3.19529863		4.59199819		0.72381366		0.13424023		0.03247794		0
C		3.32389866		4.63836821		4.58524857		-0.50822418		-1.13200000		0.35933560		0
C		4.30560867		1.35446943		1.58508924		0.41794137		1.21006852		-0.14049007		0
C		4.21955828		2.08236931		0.40032264		-0.37653886		-1.82231756		0.46173115		0
C		4.87984835		1.52233956		3.98217876		0.10700117		1.52819316		-1.62333871		0
C		4.78445824		2.18494904		2.75498884		0.10189033		-0.10902231		0.96967714		0
C		5.19408822		4.25299855		1.56890968		-0.21567510		0.86123872		0.10135399		0
C		4.69675826		3.47374857		0.42297796		-0.30076685		-0.09447346		-1.46050676		0
C		5.26637823		3.61545881		2.78389911		-0.18767988		-0.33488644		-0.57611216		0
C		5.73525809		4.46145824		3.92260831		0.41458865		-0.97530169		2.17687862		0
16
Lattice="4.208809798677001 0.0 0.0 0.4010701121453274 5.495245140072021 0.0 -0.22029752248235154 -1.2417840782408567 4.281054018871291" Properties=species:S:1:pos:R:3:force:R:3:tags:I:1 config_type=shaiducarbon energy=-4053.5461856004617 unit_cell=conventional pbc="T T T"
C		1.63928933		0.65058056		1.36947937		-0.37826922		-2.43235134		-1.28608608		0
C		1.24580938		-0.58002870		4.14765832		1.85727174		0.29297486		-2.82064401		0
C		0.30550909		0.57474370		1.87146916		-1.64484960		1.38046698		1.49294614		0
C		0.41308500		0.68682894		3.45798843		4.16994019		-2.75407296		-0.39410645		0
C		1.25741939		2.04284937		3.98106858		3.21022789		-3.59613097		-3.31684828		0
C		0.70373573		3.55249852		1.80550912		-6.21342011		-0.57310191		6.08668391		0
C		1.69998920		3.12771892		1.09687939		2.73344292		-0.02328367		2.58621656		0
C		0.62637864		3.19499885		3.42427881		2.50667531		3.70534869		-2.85461345		0
C		2.44318884		-0.55645095		1.98038937		1.38054334		-1.67102577		-1.18053141		0
C		2.64646888		-0.61213687		3.51294876		-3.61094388		-4.17885987		-0.09660876		0
C		3.66123859		1.71153944		1.31634946		0.02477003		2.73810562		-2.45736357		0
C		3.34447852		0.55771865		3.94429831		-2.05858721		4.14076458		2.99569719		0
C		2.22981901		1.93389928		1.82567942		7.51725247		-1.07503177		-1.25032149		0
C		2.56111884		1.79766937		3.28366879		-1.81210565		2.36079029		3.25461236		0
C		4.23001841		4.75544791		1.32015927		-4.03789980		0.71593863		2.99332303		0
C		3.79784856		3.59910856		4.17858844		-3.64404866		0.96946836		-3.75235569		0
24
Lattice="7.087636397369 0.0 0.0 -0.12944150352515005 6.541186718768246 0.0 0.2196883777728495 -0.34085860962226994 3.216057541124568" Properties=species:S:1:pos:R:3:force:R:3:tags:I:1 config_type=shaiducarbon energy=-6082.2547160259055 unit_cell=conventional pbc="T T T"
C		1.08254928		0.44788901		0.34471074		-4.90900642		2.24773082		-0.66789624		0
C		0.91680349		1.41566961		1.46950942		0.56733955		2.64973314		1.03364752		0
C		0.52333193		4.25935833		0.40159965		0.52765454		-3.97483522		-0.93188575		0
C		1.88838944		0.70887279		2.31295942		-0.61196416		1.67404836		-1.23886850		0
C		2.40737878		4.93829790		1.32824929		2.32274024		1.64697436		-0.09548982		0
C		1.98233890		3.86510855		0.56506394		-2.81507577		2.19805270		0.56911412		0
C		2.03427922		6.39520763		1.10028964		1.81429520		-2.62189810		0.67378690		0
C		4.21204835		2.79313899		0.98122585		-0.54657530		2.01422511		0.29455969		0
C		4.18754852		1.39324929		1.40277933		1.79235005		-0.30923504		0.06837931		0
C		3.07315874		3.04033873		-0.01711168		-3.20607735		-0.62502589		1.67163332		0
C		3.41940892		0.60098691		0.40574663		1.28267602		-1.95691183		-0.64822060		0
C		3.18416885		1.33067964		2.56116915		1.19052813		-0.34160217		3.39959030		0
C		4.06433847		3.55276847		2.29053910		2.99130111		-2.72423965		-2.28082660		0
C		3.85362871		4.91725825		1.88913931		-1.73180772		-0.43507958		-1.54883168		0
C		5.78301800		1.10641973		1.71274931		-0.46205305		1.08565043		-0.80899386		0
C		5.84033784		-0.09769882		2.67157893		-0.17618009		0.04779967		-3.40381154		0
C		4.84000798		5.09884775		0.73133989		-0.92836590		-0.38236293		1.34691251		0
C		5.25499830		3.38717860		3.24035892		2.03518167		1.06596811		0.56293884		0
C		4.39232806		5.76155806		2.94955887		1.15353558		2.02249918		3.65636168		0
C		6.87412773		2.11205895		1.88148963		-0.17110088		-3.30753831		0.09351187		0
C		6.55998738		0.26318308		0.59183465		0.09514503		-1.35033234		-1.76919853		0
C		6.75732773		3.21663873		2.72042905		-1.36390752		4.12821347		-0.07380126		0
C		6.12457758		5.65390820		1.45840947		-1.05311644		-2.56720735		0.48949985		0
C		6.92722759		4.48002834		1.68786958		2.20248349		-0.18462772		-0.39211153		0
16
Lattice="4.6490062153039995 0.0 0.0 -0.07000938459626292 4.824724703223845 0.0 -1.6626752318475377 -1.1949433655320176 4.2811303534869944" Properties=species:S:1:pos:R:3:force:R:3:tags:I:1 config_type=shaiducarbon energy=-4059.221371520137 unit_cell=conventional pbc="T T T"
C		-0.39501908		1.13180940		1.64878958		-1.68492619		-1.96228673		0.13555740		0
C		-0.52943859		1.12099953		3.11950874		0.74695592		2.43684975		1.41052011		0
C		-0.47237762		3.52614895		1.64605922		-0.64720707		-0.69442979		-1.17868099		0
C		-0.55437075		3.55162875		3.10715865		0.04819511		2.43870403		1.70627716		0
C		0.23185803		0.00449419		3.74014875		-0.32635063		-1.68090061		-3.18581833		0
C		1.79232951		1.21792945		0.89167381		0.65936737		-0.74575907		2.62185722		0
C		1.78877953		3.61052887		0.81277274		0.08904997		1.16547039		2.77489299		0
C		0.15622381		2.40774914		3.64278879		0.28228138		-1.77397307		0.04680286		0
C		1.80689949		-0.01983266		1.59032926		0.85397483		1.58503053		-0.75862231		0
C		1.75603936		0.01526966		3.15063895		1.83536052		-0.73339077		-0.57997010		0
C		1.90637939		2.46681895		1.58879927		-0.36101761		-2.56306967		-1.91637553		0
C		1.89580941		2.42362922		3.02966902		-0.87271793		0.41869676		3.28471975		0
C		4.11348858		-0.09356729		1.00832947		1.01220090		0.13881500		-3.33693606		0
C		4.11498835		2.26248908		0.92934285		0.71053879		4.71823325		0.08758984		0
C		2.56193901		1.20194942		3.70490881		-1.14379058		-1.03398073		-2.11447790		0
C		2.52003891		3.64755867		3.65764888		-1.20191504		-1.71400925		1.00266390		0
24
Lattice="4.84443022305 0.0 0.0 -2.2609294961089965 5.903858668528805 0.0 -2.24143066446122 0.1047753368641254 5.116173691981768" Properties=species:S:1:pos:R:3:force:R:3:tags:I:1 config_type=shaiducarbon energy=-6079.532559794966 unit_cell=conventional pbc="T T T"
C		1.20344948		0.52026855		1.27117946		3.51797735		-0.26526040		-1.40504623		0
C		1.93444929		1.01822947		2.61740883		-4.91746562		0.47590591		-0.91036920		0
C		-0.32767774		1.26715955		4.09819855		-1.24788048		-0.00409320		-4.20918760		0
C		0.23476787		0.68423653		5.29395798		-1.41660797		0.20968417		0.37870502		0
C		-1.05692969		0.23444475		3.18010878		3.53974227		-5.51704991		1.24291799		0
C		2.75760906		2.06360907		1.78952913		1.50704377		1.01882021		3.21663225		0
C		3.53221844		1.55917938		0.57269885		-2.38787611		-0.68674527		2.56134471		0
C		0.15207490		1.63510953		0.98870752		-1.64726747		-1.25698142		0.57970913		0
C		0.86060479		1.82154936		3.39013857		1.25139595		1.06983891		-2.62004844		0
C		1.31864955		2.75040879		4.51838796		0.01381840		-2.79890866		0.49856017		0
C		2.13118936		3.29236876		1.25627945		-0.23539265		-0.27011671		-3.12919154		0
C		0.18540700		2.47649889		2.20706912		-1.38686388		3.38126732		3.70839957		0
C		0.11398702		3.54855870		4.79457813		-1.99741445		0.96338307		1.63809300		0
C		-1.05449972		2.69122874		4.17064846		1.45571191		0.05052813		-0.74245289		0
C		-2.14636889		2.86091896		5.09727799		-0.51903414		1.93813634		-3.47499207		0
C		-1.21512940		3.06458898		2.70808881		0.21886944		-5.27074343		0.51470234		0
C		-1.94586907		4.25261816		2.08705902		2.91641151		-0.98736428		-0.17915435		0
C		0.02936064		4.20028814		0.65728260		0.82742689		1.14019206		0.10525924		0
C		0.83145876		3.69815858		1.80316911		3.86898051		2.84926041		0.67118494		0
C		1.73433945		4.85644780		2.60505893		-0.10215823		1.72820663		1.30345338		0
C		-0.35710863		4.94315777		4.38471802		1.32252044		0.37289072		-0.23565567		0
C		-1.03887934		4.96168820		1.31084953		-1.25679836		0.60629847		-0.51203713		0
C		0.23877809		5.77413742		3.44604862		-3.18340741		3.74040597		-0.52286534		0
C		-1.52867933		5.30338767		4.95309806		-0.14173166		-2.48755528		1.52203845		0
24
Lattice="5.276694805624 0.0 0.0 -0.6918538394393908 5.422658737337172 0.0 0.20026112126304207 -2.0028381105070623 6.103600371918532" Properties=species:S:1:pos:R:3:force:R:3:tags:I:1 config_type=shaiducarbon energy=-6086.522161864082 unit_cell=conventional pbc="T T T"
C		0.09313683		-0.94422865		4.35380722		0.87056952		0.99105073		0.17189355		0
C		2.70854591		-1.17097087		5.71754683		-0.80214547		0.19683250		0.15987029		0
C		0.96393130		1.73165874		2.18922680		-0.37381143		1.73085718		-1.44220898		0
C		2.19961978		1.78027820		4.22561941		-0.38541123		-0.15655074		-0.64887880		0
C		0.72966927		3.10303003		1.53321175		0.87040471		-0.41023294		2.12560204		0
C		0.92027668		1.81815749		3.60372980		-0.13421323		-0.29075574		0.95533500		0
C		2.23915805		1.58003133		5.59309440		-0.38328441		-0.45306395		0.61140957		0
C		1.16852881		0.35825275		1.60875027		0.21580905		0.25039170		1.57929696		0
C		2.67014002		-0.94965099		4.34425534		-0.60114752		0.11440852		-0.23940923		0
C		1.18565063		0.67287251		0.22892149		0.19137276		-1.21074293		-1.38558527		0
C		0.64646477		4.41273629		2.23643844		-0.11446560		1.97742462		-0.97461443		0
C		1.38048045		-0.92113520		3.67603951		-0.10269688		-0.28248141		1.29920565		0
C		3.93605657		0.55846744		2.79668149		-2.06931798		-3.10601688		-1.81525602		0
C		4.88884666		1.78418771		4.23682553		1.42606630		1.04993701		-0.08429600		0
C		0.71646434		3.42661543		0.14319631		0.28571972		-0.88660833		-1.60067776		0
C		5.33963891		-1.16692206		5.71867604		0.24321729		0.16937001		0.52105400		0
C		3.82967840		-0.00681274		1.52810918		0.57007752		0.12527170		2.41762045		0
C		3.55959658		3.32759825		2.73665856		-2.59740626		1.75501297		-1.28750353		0
C		4.86347684		1.57101135		5.60225579		0.18069984		-0.44607054		0.81149349		0
C		3.55192004		1.92355999		3.43066846		1.20324738		-0.38157463		-0.37454009		0
C		3.29248607		3.92177677		1.52011974		0.65787073		0.39337729		1.05321800		0
C		3.34702968		3.52488015		0.15243105		0.14955399		-0.86937935		-1.03143585		0
C		3.81525033		0.69789302		0.27895880		0.02626153		0.17040256		-1.27859542		0
C		4.02367028		-0.79701995		3.64124868		0.67302971		-0.43085937		0.45700211		0
16
Lattice="4.573394759659 0.0 0.0 1.923656730413009 3.905061716456232 0.0 0.1363740583382717 -0.11427084146483979 6.182726641635406" Properties=species:S:1:pos:R:3:force:R:3:tags:I:1 config_type=shaiducarbon energy=-4058.528746928981 unit_cell=conventional pbc="T T T"
C		1.76027952		0.56409166		1.66807942		-1.96689749		0.79388348		-1.81948832		0
C		2.05674938		0.64712667		3.08193893		0.05284495		1.03464279		2.97198954		0
C		2.93681917		3.21538876		1.14920950		0.94383470		-0.14609585		0.91522113		0
C		2.05722913		1.91002939		3.73103856		0.10542122		-2.23339151		-1.54922480		0
C		2.33652909		1.99783948		5.15223836		0.55807483		-1.68938783		1.95376994		0
C		3.00757873		3.23708906		5.66829794		0.14630077		0.90959735		0.55320412		0
C		3.17549869		0.68593284		1.12547952		1.08990998		-0.71167188		-0.21316210		0
C		4.75519818		0.65452093		5.30183822		1.64274258		-0.91658099		0.73301102		0
C		3.31813876		0.61902499		5.70228786		-0.54301201		0.24113598		0.34133246		0
C		5.30741822		1.98817910		1.11602952		0.17087513		-1.25876423		0.52865007		0
C		3.83214854		1.91787916		1.53918927		-0.09098216		1.54539540		-1.04443587		0
C		6.04152811		3.15324913		1.72137960		-0.63613384		1.82089780		-2.90399950		0
C		5.84363778		2.96349898		3.14051908		-0.18678488		0.36181929		0.88234209		0
C		4.69608842		3.41797871		3.74865848		0.03250314		0.77636500		-1.19277116		0
C		4.55133865		3.26263878		5.21859832		-0.34877067		-0.59267599		-0.05387211		0
C		5.44565822		1.91451955		5.73275811		-0.96992628		0.06483067		-0.10256653		0
24
Lattice="5.472210890168 0.0 0.0 0.032587015850950446 5.147522729210772 0.0 0.39021241415609975 0.13380650068638797 5.532076877306438" Properties=species:S:1:pos:R:3:force:R:3:tags:I:1 config_type=shaiducarbon energy=-6080.2054572123825 unit_cell=conventional pbc="T T T"
C		1.89971905		4.01086846		0.94034472		-0.00081633		-0.60774498		-1.76748823		0
C		2.00433897		0.29341502		0.40583667		2.15787584		-0.11682485		1.01629513		0
C		0.64345046		3.37248855		1.28305944		3.59129961		-0.67571754		-2.68972308		0
C		2.34601889		1.30807948		1.70858950		-0.50436033		-0.95580525		-3.69047768		0
C		1.21666948		2.19606882		2.08694911		-2.32183599		-0.35144925		2.46546075		0
C		2.77832902		3.99428821		2.37888882		-0.85092447		-0.38056856		0.41179334		0
C		2.73404899		0.30224060		2.73505861		-0.34685571		-0.69286141		-0.08513366		0
C		1.78661940		3.11181869		3.26314885		1.19699857		0.77405589		-0.97073489		0
C		0.64277957		4.12969807		3.45800881		1.02959623		-1.58819736		1.53407354		0
C		1.30721925		0.32965365		3.61155850		0.00635269		0.03596770		-0.51562974		0
C		1.53020911		1.03130983		4.90313817		-0.15493660		0.60352142		-1.08454897		0
C		2.35033920		2.39545922		4.47454805		-0.87974759		-0.93780726		0.86784903		0
C		4.41127834		1.03394962		0.81180249		-0.85748182		0.03496446		-1.51520625		0
C		5.27458801		4.11487823		2.09025925		-3.88605985		0.67306570		2.30809266		0
C		3.97049832		3.19509863		2.16097936		0.59335245		3.17073931		-0.18857282		0
C		4.68175824		0.43587801		2.09408925		3.25106629		-1.12087072		0.92126400		0
C		3.60899860		2.24838918		1.15462938		-3.93778662		-3.79152134		-0.22536482		0
C		5.65615762		1.32243966		2.91541885		2.09336064		-0.39154640		-1.93574958		0
C		5.03448765		2.05551892		4.03300848		0.27174473		-1.35002380		-0.71280933		0
C		5.15335775		3.39892863		4.31348829		0.83617224		3.36040023		0.12366939		0
C		4.17275835		4.00544824		5.02732781		-0.05643704		0.26212725		0.50632876		0
C		5.48885790		1.21961955		5.06766785		-0.11662661		0.22640561		4.36074705		0
C		3.97059846		0.16319993		5.39085772		-0.60831782		2.00948476		1.78283722		0
C		3.13852855		3.10136896		5.57413793		-0.50563225		1.81020612		-0.91697205		0
16
Lattice="5.038384706267 0.0 0.0 -0.26921097162525837 4.779346233363695 0.0 -0.1799056027066758 -0.16574270329735927 4.1077748974806605" Properties=species:S:1:pos:R:3:force:R:3:tags:I:1 config_type=shaiducarbon energy=-4058.9271561907663 unit_cell=conventional pbc="T T T"
C		0.68055478		2.25858896		0.61823852		-1.29745370		0.45186762		-0.70319340		0
C		0.74728465		0.52112164		0.57055172		0.27355325		0.84650526		0.65759768		0
C		0.43484384		4.63401806		1.88979935		0.64179952		-0.78096650		0.81863036		0
C		0.51766178		2.90227888		1.95767949		2.34388887		-0.17183518		-1.66255475		0
C		1.95181935		0.37385772		3.95006842		0.00231271		0.23842115		-0.73587523		0
C		1.84032947		2.16487903		3.93484847		0.88704670		-1.33547495		0.57071901		0
C		1.93076948		2.80330888		2.61481888		-1.95729673		1.59182416		0.33060041		0
C		1.81319928		4.59856849		2.59110925		-1.34019164		-0.43255964		0.87127426		0
C		3.11462866		2.17039909		1.87859953		0.11911699		0.61634095		0.50545022		0
C		3.20150855		0.51082973		1.88177925		0.60707109		0.15595398		-0.15590899		0
C		3.02520892		4.64822832		0.55436490		0.06523794		-0.15614553		0.95774541		0
C		3.16150881		2.88633894		0.57793699		-0.32009102		0.89957750		0.67021281		0
C		4.51107845		0.52913368		2.63825896		1.03158883		-1.45546097		0.28673093		0
C		4.45533829		2.20434924		2.65776909		-1.30003818		-0.99078514		0.17412964		0
C		4.20677815		4.51179843		3.95871832		0.40309221		0.37002677		-1.33101434		0
C		4.35457816		2.79439900		4.00342844		-0.15963709		0.15271053		-1.25454427		0
16
Lattice="4.95183727874 0.0 0.0 0.016355918531678223 4.874984764173956 0.0 -1.5776999235420728 -0.8687651876939818 4.362707294013745" Properties=species:S:1:pos:R:3:force:R:3:tags:I:1 config_type=shaiducarbon energy=-4060.39520951545 unit_cell=conventional pbc="T T T"
C		-0.08078180		0.82708260		2.00823940		1.21045702		-3.38030007		3.10023601		0
C		-0.26141195		1.92946953		1.27778942		1.72686143		2.71506209		2.62897635		0
C		-0.00218970		3.23678874		2.07366951		0.10099764		-1.90186499		1.13260935		0
C		-0.18494716		4.37966833		1.36600938		-0.07863828		0.35895893		-1.12208402		0
C		2.05576911		0.57450671		-0.10206083		-0.09091659		0.33516052		0.26752246		0
C		0.14785691		0.90341369		3.56146883		0.78525125		-0.08064323		-0.07642867		0
C		0.42411892		2.16378948		4.33008855		0.58468705		-1.16529350		-1.14494603		0
C		0.24502384		3.31425875		3.58026897		-0.41958353		0.66795949		-1.09645396		0
C		2.44974917		-0.47371405		2.10087936		0.45595207		-3.34920512		1.64774724		0
C		2.31031930		0.64175266		1.40870956		-1.02515670		3.77557611		-2.53101236		0
C		2.51450930		1.92962947		2.11931951		-1.02003223		0.17348455		-0.31750089		0
C		2.35545926		3.11128888		1.38284958		-1.54067485		0.21379099		0.10549116		0
C		2.65095915		-0.39829905		3.55442880		1.21249796		0.43824641		0.50077183		0
C		3.02415883		0.93746450		4.24948849		-1.84059427		-3.74070884		-1.01792341		0
C		2.69241891		2.05219933		3.57439857		0.42742180		1.29714877		-2.27830460		0
C		2.94289918		3.26847901		4.26000866		-0.48852952		3.64262735		0.20129954		0
24
Lattice="5.295525039992 0.0 0.0 -0.6297703153810487 5.326657431702113 0.0 0.022834303972445503 0.23412575306812633 5.515321102301909" Properties=species:S:1:pos:R:3:force:R:3:tags:I:1 config_type=shaiducarbon energy=-6082.075475648042 unit_cell=conventional pbc="T T T"
C		0.56546093		0.99605490		0.84652992		-1.40130938		1.31237871		-4.00510998		0
C		3.10815864		0.68439154		0.88084175		2.12660452		-1.27483646		0.67480274		0
C		5.21847833		0.80272375		2.08103914		-1.51769328		0.44150246		1.44702209		0
C		1.80616961		0.68380691		1.19284932		1.45022363		0.69245852		1.86016423		0
C		1.30583941		0.61332400		2.62565900		1.23500362		-1.48435685		0.20370069		0
C		4.63432843		1.89575931		3.00386910		1.20294039		-0.40202160		0.51129048		0
C		3.31024859		1.43096949		3.83475869		0.98863852		-1.80130135		-0.52587996		0
C		0.51385657		2.06908926		4.04611846		-2.09201801		-0.80927643		0.93436532		0
C		1.84388911		1.82419929		3.35564871		1.09648584		0.07006776		0.82698646		0
C		-0.05046106		1.38982961		5.16751790		-1.21579618		0.22317681		0.54776984		0
C		3.77254845		1.27275932		5.23177804		2.60101095		1.15115216		-0.29767664		0
C		3.45378856		3.54921869		0.42838203		0.65383178		-0.34221538		-2.82858333		0
C		0.88023594		3.72642867		0.57716192		-1.39510659		-0.55184890		-2.31183901		0
C		0.76926080		3.58159871		1.99519921		1.55491749		0.80567328		0.15302061		0
C		3.37372870		5.21718834		2.01844921		0.09701988		0.71819606		-0.85435510		0
C		3.43172899		3.66989894		1.85809912		-0.11319959		0.62945436		0.90423402		0
C		2.12619937		3.14137906		2.69861915		0.42489826		0.58570521		-1.29024150		0
C		4.71124805		3.24013901		2.57386929		-2.30140007		0.63649790		0.41717595		0
C		0.86355451		4.65072814		3.33693856		-0.75831815		0.91338305		-1.66632502		0
C		-0.17127899		3.84158886		3.96687834		-0.90978633		-0.25773786		-1.82313826		0
C		2.17209940		4.26088853		3.82863866		0.50938838		-0.74439073		1.40549026		0
C		3.01936911		5.37265807		3.37934884		-2.61995177		-1.24010803		1.77130530		0
C		4.79300831		3.91783860		5.31865801		-0.32228469		0.59469482		2.77469836		0
C		2.13978928		3.88812858		5.29745791		0.70590077		0.13375275		1.17112219		0
16
Lattice="5.296017703779 0.0 0.0 -1.0136313084147817 4.282222218815401 0.0 0.9246635070089984 -0.7835564113095106 4.919290780438385" Properties=species:S:1:pos:R:3:force:R:3:tags:I:1 config_type=shaiducarbon energy=-4059.3227006367674 unit_cell=conventional pbc="T T T"
C		1.07996976		1.25727937		2.45172890		-1.06967101		-0.75283064		0.35817577		0
C		0.80335081		0.34741611		3.68710871		0.54766648		-0.50289685		0.14828515		0
C		0.73677986		2.68067893		2.47966910		0.82281664		-0.45738726		-0.90321895		0
C		0.12370915		3.18880905		3.69037847		-0.72695530		-0.12335057		-0.20098355		0
C		1.66020940		0.68762382		1.24549944		0.63476241		1.16825490		-0.56347569		0
C		1.00327971		3.55928879		1.22952930		-1.33243487		0.26500921		-0.15486846		0
C		1.92168915		1.65552931		-0.05516067		-0.69490236		-1.34327620		0.43858580		0
C		3.48657871		0.32070406		3.67449889		-0.46121513		-0.39310809		0.04460225		0
C		1.55072959		3.05369864		-0.04654299		0.95975138		-0.52967826		1.16685493		0
C		2.73610917		3.12194895		3.68216858		0.12363622		1.85490015		-0.37590149		0
C		3.65222861		1.18938972		2.39268890		0.24359936		1.30429567		2.05160924		0
C		3.42171891		2.66535914		2.49360928		-0.53904788		-0.82110582		-1.05882532		0
C		4.51054837		1.61759923		-0.02209287		0.49195140		-0.50100812		-0.16484615		0
C		4.28379831		0.68551600		1.23403938		0.60782854		0.88386367		-1.22962409		0
C		4.25686859		3.01834878		-0.00132983		-0.89376911		2.06749275		0.77835632		0
C		3.57409858		3.59098864		1.22240933		1.28598323		-2.11917454		-0.33472575		0
16
Lattice="4.618735174196 0.0 0.0 0.5855540079142205 5.1777453110641165 0.0 -0.34118134858268434 -0.8649967234234268 4.164145402146107" Properties=species:S:1:pos:R:3:force:R:3:tags:I:1 config_type=shaiducarbon energy=-4060.046449758876 unit_cell=conventional pbc="T T T"
C		0.28915776		0.67637682		1.82669914		0.58353340		1.43769129		-0.29911029		0
C		0.39452497		0.75367181		3.31473876		-1.15986538		-0.78728962		-0.39671741		0
C		0.70441162		3.41360879		1.82375931		0.55936758		-2.60562840		2.29074181		0
C		0.67812778		3.28583841		3.31006875		-0.91212346		0.87722714		-1.58181433		0
C		1.75760933		0.67752781		1.24870969		-0.47164764		-2.29608637		0.45988766		0
C		1.31782953		-0.16483804		3.92627823		1.16215598		-0.37340186		0.23826457		0
C		1.63439948		2.42024910		3.94193851		0.44859203		-1.51784961		0.54778938		0
C		2.11770901		3.18763856		1.27713940		-1.57953685		1.94843901		-0.42870453		0
C		2.47436913		-0.68243059		3.25312853		-0.33360192		0.36251323		0.59493265		0
C		2.77235884		1.92106914		1.82686911		-1.58961069		0.31161486		-0.50422277		0
C		2.78271866		1.91211941		3.31384873		0.57684724		0.34762061		-0.81494674		0
C		3.02031887		4.48596825		1.75702921		0.89438566		1.53814488		1.10873201		0
C		3.79681832		1.15803930		3.97692820		0.46532375		-0.89523619		0.22597006		0
C		4.10686847		1.78439938		1.22853968		1.11878015		0.89214855		0.14376771		0
C		4.52023788		4.47860829		1.31141965		-1.10530473		1.53300782		-2.61799105		0
C		4.07547816		3.74202857		3.92778856		1.34270515		-0.77291560		1.03342152		0
16
Lattice="4.961375164988 0.0 0.0 0.016387422169955364 4.884374622427386 0.0 -1.5807387799416615 -0.8704385430709897 4.371110438859048" Properties=species:S:1:pos:R:3:force:R:3:tags:I:1 config_type=shaiducarbon energy=-4060.274494592045 unit_cell=conventional pbc="T T T"
C		0.00532604		0.73076144		2.10633893		0.13465263		-1.03499246		0.10670601		0
C		-0.07768273		1.88103941		1.38142942		-2.46552297		2.20826693		-1.68111504		0
C		-0.02549551		3.17324842		2.09287921		0.68665014		-0.81768857		0.42298999		0
C		-0.20783201		4.34214792		1.40645956		-0.96979746		0.42928226		-1.96196046		0
C		1.93750928		0.59250280		-0.09652355		0.95216457		-2.06224667		-0.60909867		0
C		0.29204093		0.87200683		3.50240838		-0.40930708		0.83519368		1.54003413		0
C		0.51664586		2.16168902		4.23973819		-1.40045706		-1.50517432		-0.03081470		0
C		0.24084897		3.30294869		3.49493853		0.19496150		0.85581009		2.22172358		0
C		2.45353894		-0.50203957		2.09997894		-0.34558173		-0.10378806		-0.08961998		0
C		2.26500916		0.63027375		1.31876924		0.11172223		2.39902468		0.96436729		0
C		2.45817882		2.02195933		2.07514924		1.08665342		-7.44067621		2.95581524		0
C		2.24348920		3.06088866		1.38803946		0.23181393		7.08206490		-3.99137205		0
C		2.66361894		-0.34498575		3.56249857		0.75965667		0.39723626		0.93450982		0
C		2.92727882		0.95759849		4.34693812		-0.00896621		-0.73617759		-2.62201225		0
C		2.74554861		2.15539899		3.53070856		-0.32472698		-2.80068324		1.88554875		0
C		2.81539882		3.34288875		4.30791790		1.76608390		2.29454808		-0.04570191		0
16
Lattice="5.277239857934 0.0 0.0 1.3330202336344126 4.289794399156539 0.0 1.1568817988961495 0.3186502971017708 4.712923490965687" Properties=species:S:1:pos:R:3:force:R:3:tags:I:1 config_type=shaiducarbon energy=-4059.509413400067 unit_cell=conventional pbc="T T T"
C		1.30259958		0.79038593		1.06203977		-0.42378986		1.34143040		-3.09235249		0
C		1.73687948		2.23281918		1.02616984		0.65740227		-0.90432350		0.87935293		0
C		2.31103896		2.37191931		3.36470903		1.12600007		-0.89620549		1.73600094		0
C		1.94752948		0.94018461		3.34822874		-1.21118310		0.25220510		0.97576731		0
C		2.74680915		4.42852829		2.21214929		-0.08800096		-0.66508834		1.63081291		0
C		2.27930903		3.02706911		2.20250935		-0.97969648		0.44428825		-1.97546441		0
C		2.86977887		3.16689908		4.52487855		-0.46231864		0.32284802		0.24988211		0