16
Lattice="5.177714364482 0.0 0.0 -2.3901882820758256 4.373190751100058 0.0 0.3886910173416638 0.7544602931917658 8.634527338784212" Properties=species:S:1:pos:R:3:force:R:3:tags:I:1 config_type=shaiducarbon energy=-4065.332078011814 unit_cell=conventional pbc="T T T"
C		0.18918177		2.43484918		4.19363849		-1.88634657		-0.77868799		-0.41348821		0
C		0.09382329		0.95623686		4.10869809		-1.23009589		1.18167272		0.66235859		0
C		0.52412294		2.36577898		7.92986682		-5.09137697		4.43946040		-1.03882598		0
C		-1.04226976		4.66388835		4.20381839		-0.25996110		-3.00435204		-0.74896884		0
C		-1.09078960		3.19360852		4.19638837		-0.15690478		-1.60048390		-0.68323237		0
C		-0.76418559		4.59347816		7.86999691		0.02246092		-0.41221680		-1.10486404		0
C		1.64070947		1.69004946		7.78521701		6.37263528		-3.00295953		0.66752549		0
C		0.53957376		3.87776840		7.91267681		-1.54902811		0.41088986		-0.29523820		0
C		2.75955866		2.36859928		4.06172845		0.13173597		1.14450971		1.71971581		0
C		2.65878895		0.90479937		4.13132832		1.52933628		2.14223735		-0.25441137		0
C		3.09173855		2.46437923		7.77383692		-2.01276626		-1.80720307		0.05771334		0
C		1.53644946		4.57583821		4.08578825		0.79668470		-0.76641199		1.03078613		0
C		1.48546916		3.08792879		4.19771853		1.08883526		1.68965214		-1.23846612		0
C		1.77061936		4.65582820		7.86938697		2.71516159		-1.20570073		-0.88051944		0
C		4.33735838		1.74503938		7.82309665		-0.88135196		-1.83944112		0.66303454		0
C		3.07022877		3.84102838		7.72094708		0.41098216		3.40903474		1.85688067		0
24
Lattice="7.722069877731 0.0 0.0 3.722910274962526 7.658301024680698 0.0 -0.24217955550539963 0.3100797159402883 3.0751984977582048" Properties=species:S:1:pos:R:3:force:R:3:tags:I:1 config_type=shaiducarbon energy=-6089.0059016382165 unit_cell=conventional pbc="T T T"
C		7.29000154		4.51040156		1.71701845		2.89561409		1.85844648		1.74432643		0
C		6.80586714		0.68152749		0.99700957		-1.27957964		-2.59813877		0.01054770		0
C		5.50667212		0.58365412		0.34694102		3.25004248		0.73295651		1.77663340		0
C		8.52283462		4.62000475		2.43974782		-2.17203003		-1.49029585		-0.51078372		0
C		4.94305832		1.92261161		0.38935371		-3.76955047		-1.98152965		-1.97440460		0
C		9.14807827		5.95678849		2.58014973		2.89898430		-1.45770966		-0.03679431		0
C		3.44827718		2.06565215		2.79958006		0.78718395		1.42745624		-0.17505575		0
C		8.54663945		7.26843843		2.86935051		-1.97621312		-0.92039034		-1.28893306		0
C		3.29844431		7.14874634		1.60969095		2.17490375		0.31550185		0.50083354		0
C		1.37602266		0.75183617		2.58877837		2.81099928		-1.05650644		-0.17046633		0
C		7.50341947		1.97351009		0.72400892		1.24954424		-2.02037596		0.18047410		0
C		5.40961960		3.22436727		0.94696747		2.22696581		0.11530841		0.34587638		0
C		6.82551749		3.24592883		1.12054956		-1.51713175		0.83324504		-0.13704762		0
C		2.80772916		0.75449102		2.57841767		-1.48285738		0.82965218		-0.19091047		0
C		6.68824843		5.84068948		1.88140897		-2.72802689		-0.02653483		-0.77632926		0
C		4.74605442		4.46773558		1.38167985		-3.18255226		1.23327532		0.76028582		0
C		7.21715462		7.12658864		2.39454900		0.89693877		1.24920074		0.97042378		0
C		3.38724734		4.54021878		1.87358883		0.11632168		-0.95981129		-0.03779267		0
C		4.68023536		7.11994380		2.07018964		-4.00844419		-0.03830175		-0.90535451		0
C		2.72384123		5.83518905		1.99933965		-1.19328024		0.47202225		-0.03234862		0
C		1.38897180		3.28494922		2.67079988		3.10497353		1.49209896		-0.61196802		0
C		0.72792864		2.02889896		3.05187862		-1.05444570		1.99352231		-0.24386084		0
C		5.27095594		5.80919888		1.71318058		3.96069054		1.02339961		0.27192856		0
C		2.78383631		3.32037653		2.39494901		-2.00905102		-1.02649059		0.53072032		0
16
Lattice="5.020591129642 0.0 0.0 -0.1711870957474033 4.254770241090927 0.0 -1.2666248537328617 0.0071342599952212826 5.590433243447497" Properties=species:S:1:pos:R:3:force:R:3:tags:I:1 config_type=shaiducarbon energy=-4067.357266168546 unit_cell=conventional pbc="T T T"
C		0.76075411		3.07176685		1.58687782		-0.01330110		0.09654140		-0.01830061		0
C		2.10131771		0.94440181		1.58677188		-0.00941976		0.09534815		-0.01661757		0
C		0.86835592		0.23996066		1.58354063		0.02881412		-0.09490155		0.00274543		0
C		2.03806680		2.36735984		1.58348992		0.02607949		-0.09520365		0.00371139		0
C		-0.99032616		4.15676680		4.38606924		-0.02729434		0.09828101		-0.00089063		0
C		0.28703222		3.45236782		4.38298861		0.00913385		-0.09943415		0.01592131		0
C		-0.88267113		1.32496914		4.38291631		0.01126298		-0.09877595		0.01706237		0
C		0.35026305		2.02938067		4.38618672		-0.02488367		0.09812314		-0.00320617		0
C		3.37865801		0.23995212		1.58369125		0.02772371		-0.09369647		-0.00045483		0
C		3.27101855		3.07180099		1.58672118		-0.01094494		0.09435776		-0.01500214		0
C		4.54838094		2.36733022		1.58365761		0.02481271		-0.09365610		0.00060755		0
C		2.79733029		3.45236832		4.38300016		0.00866128		-0.09980516		0.01578761		0
C		1.51998145		4.15676680		4.38614756		-0.02819860		0.09846870		-0.00230911		0
C		2.86055108		2.02938067		4.38617518		-0.02418510		0.09832549		-0.00311515		0
C		1.62763046		1.32498169		4.38286611		0.01099687		-0.09966761		0.01819725		0
C		4.61161629		0.94438926		1.58667097		-0.00925752		0.09569525		-0.01413619		0
24
Lattice="4.957442850701001 0.0 0.0 -0.8246854905426635 4.548676900446449 0.0 -0.15429049384236723 -0.48683576026739034 6.578888556208328" Properties=species:S:1:pos:R:3:force:R:3:tags:I:1 config_type=shaiducarbon energy=-6083.000578353023 unit_cell=conventional pbc="T T T"
C		0.50585301		0.81058157		0.13100786		0.47399480		1.78148970		-0.15298744		0
C		-0.28460977		3.00914897		1.17029957		-1.38410046		-1.55925160		-0.90562371		0
C		1.16949944		2.72545881		1.70419931		-4.52920149		0.25231000		1.27238749		0
C		1.82643944		0.59329387		3.74264875		-3.00345139		0.04195607		0.21879128		0
C		1.30277930		2.74218919		3.13446867		-2.09299503		-2.98359500		-0.62549075		0
C		-0.08132041		2.15928909		3.67023885		1.64025298		-2.44712260		3.79367438		0
C		1.78472950		3.95960875		3.62118842		-0.70234159		4.92925439		-0.58006703		0
C		0.53688759		0.85677551		4.42444834		0.31764693		1.18521108		0.55555026		0
C		0.75650181		1.45771921		5.81569767		1.93690067		-0.14160387		3.96044115		0
C		-0.02007715		2.66223902		6.26078779		0.78988130		1.00961668		-2.00986991		0
C		0.55649775		3.98249875		6.60501775		1.39617746		0.68992984		-0.11572441		0
C		4.01985854		0.61935763		0.58893083		1.22111553		0.47184922		2.05665272		0
C		2.38670930		2.74194875		1.07388970		4.95010220		-0.84155485		-2.77646960		0
C		3.34570878		3.96799873		1.46957940		1.09680903		-0.29169008		1.15916296		0
C		3.63649849		1.90930954		1.47373969		2.14741093		-2.51486350		0.63400188		0
C		3.73569841		1.49739958		2.90349892		1.51899375		0.25365161		-0.38706471		0
C		3.15004892		4.38371849		2.97239895		-2.07666491		1.51424929		-0.40579007		0
C		2.48837902		1.83809934		3.67678862		-1.24720042		-1.43638054		-0.35250469		0
C		3.78575867		4.21013858		4.48978843		-0.00584515		2.61117068		-3.70787686		0
C		2.37127926		3.91593864		4.97951834		1.04455260		0.82286446		1.21506598		0
C		2.80274881		2.47060907		5.06997829		-0.33705337		-1.13890239		-0.01203277		0
C		4.20024848		2.88841888		4.89318844		1.89561669		-1.36170562		-0.14308509		0
C		2.29818920		1.68977959		6.21513767		-3.34554155		-1.47298614		-3.00722140		0
C		2.72910897		0.08683407		6.19104748		-1.70505949		0.62610344		0.31608010		0
24
Lattice="4.909126873893 0.0 0.0 1.045143293198072 5.896082286254818 0.0 0.8137074158552604 -0.01593993495953057 5.039508374536725" Properties=species:S:1:pos:R:3:force:R:3:tags:I:1 config_type=shaiducarbon energy=-6086.276091385773 unit_cell=conventional pbc="T T T"
C		4.14349846		0.84689360		0.46727181		0.71731442		-0.40647373		-0.47595681		0
C		1.67560920		0.91959974		2.23446912		-0.10921746		0.71092626		1.53738332		0
C		2.47777919		0.47951959		0.17577669		0.69136272		0.07261958		-0.68514219		0
C		0.88759763		0.30841491		3.45408867		0.34735939		0.26902424		-2.63054935		0
C		0.94842564		2.29021912		1.68765915		0.00779482		0.07652612		1.65496922		0
C		4.17287812		1.94188908		1.40620957		-0.12833594		-0.10083797		0.67215219		0
C		5.79433769		1.42649949		4.36119811		-0.17610373		0.48249359		0.38062049		0
C		2.56989895		1.86140935		4.68151815		0.07961401		-2.01672397		-0.82162879		0
C		3.34642857		1.30485967		2.55162915		0.44745020		-0.40776133		-0.25035699		0
C		3.47991853		3.28178862		0.89134280		-0.05167099		-0.57115918		-0.63309608		0
C		1.75859947		2.93568880		0.61989361		0.57562210		0.43552156		-1.96306243		0
C		3.31693846		2.37320890		3.49273872		0.79731847		1.87076824		1.07056653		0
C		5.12144808		2.76679863		3.78785824		-0.94257512		-0.19877780		1.31323823		0
C		5.88901756		3.37115879		2.68505873		0.12816933		0.77856072		-1.11228400		0
C		1.08781931		4.29044827		0.00727729		-0.84289517		-0.39024311		1.82352984		0
C		3.52484833		4.35703812		1.84721902		-0.72840900		1.18259884		-0.23797249		0
C		2.68952898		3.79027844		2.97347877		-0.12082549		-1.44833078		-0.36800254		0
C		5.05970796		3.84361856		4.75551784		0.14386927		1.09371496		0.44374807		0
C		5.94806749		5.38161757		0.98335850		-0.01139642		-0.39367399		0.12089105		0
C		5.17064784		4.73530795		2.14284910		-0.21294124		0.33383923		0.08982541		0
C		2.75825872		5.75284771		1.28781960		-0.61527240		-0.92707341		0.47420872		0
C		2.68138915		4.86708806		3.92672860		0.00673141		0.53496085		0.66521329		0
C		4.35232830		5.25272795		4.26662820		-0.01073719		-0.49618833		-1.34099845		0
C		5.14851799		5.85491778		3.10343857		0.00777399		-0.48431085		0.27270375		0
16
Lattice="4.868568102728 0.0 0.0 0.016080880443310585 4.7930079257736615 0.0 -1.5511696146420655 -0.8541561936469085 4.289344818410244" Properties=species:S:1:pos:R:3:force:R:3:tags:I:1 config_type=shaiducarbon energy=-4057.6183643647933 unit_cell=conventional pbc="T T T"
C		-0.02931560		0.67308782		2.01157890		1.06417476		3.59340200		2.06485763		0
C		-0.30139698		1.92197924		1.36771953		3.10758269		-0.63493493		4.94982786		0
C		-0.00231452		3.19124853		2.08636887		0.33473501		-0.44270163		-1.19822730		0
C		-0.05200312		4.29701817		1.24230960		-1.31844318		-1.54714375		2.55870753		0
C		0.51084668		-0.27608384		4.26295815		0.37835303		2.69131742		0.12337062		0
C		0.28644902		0.89696357		3.55760828		-1.83700937		-1.36287007		-2.68271399		0
C		0.62378383		2.15478929		4.12920836		0.78683351		0.45411065		3.07063951		0
C		0.24411293		3.36249847		3.53628834		-0.53382956		-2.69367127		-1.78590660		0
C		2.18410927		0.75727948		1.39705947		1.09554790		-2.66158670		1.62825492		0
C		2.44192916		1.99171904		2.11946929		-0.43902983		-2.78294004		-0.44676320		0
C		2.33165902		3.15228879		1.46899938		-1.05479331		-0.40431708		-4.22706012		0
C		2.40780878		4.31919790		2.14072887		0.99684652		5.86350607		1.06135452		0
C		2.70054896		-0.27681072		3.65137837		-1.11729997		1.63257540		-5.65276801		0
C		3.10183874		0.90644267		4.33324810		-3.99123502		3.17323740		-6.18154226		0
C		2.54152887		2.09472918		3.53364860		2.40135153		-1.36200644		1.79378010		0
C		3.02539881		3.34027832		4.09064833		0.12621581		-3.51597703		4.92418880		0
16
Lattice="4.9332525825 0.0 0.0 0.6785343599547975 4.650582142775332 0.0 -0.055158697124932494 -0.30838748543724 4.4017538157666145" Properties=species:S:1:pos:R:3:force:R:3:tags:I:1 config_type=shaiducarbon energy=-4056.54952984093 unit_cell=conventional pbc="T T T"
C		0.99188470		-0.01467889		0.28599101		2.89093571		-2.03516908		1.57599361		0
C		0.58444589		1.86582914		2.98662861		-0.21084682		-0.45120633		-1.60268476		0
C		1.47191928		3.22515877		0.82633757		-2.64187790		-2.80871717		3.07060788		0
C		0.81233749		3.38780860		2.37549925		4.21695439		-2.49063701		-0.30266587		0
C		2.17767927		0.71200451		1.04450968		-2.17292889		0.81172258		0.07448363		0
C		1.74859927		0.96134441		2.64165908		0.59269681		0.97696082		-1.74072869		0
C		2.02318904		4.15289836		3.28929845		1.04271863		1.00797632		-3.49063544		0
C		2.65835913		2.33483889		0.91602459		0.81999151		-1.11721718		0.63180769		0
C		3.11402887		1.97794914		2.37319887		-0.62026729		1.42646867		-0.82049699		0
C		3.33725855		3.38194888		3.11108865		1.99177628		-2.48242259		2.30586017		0
C		3.97416859		3.22983895		0.11168588		-3.66502965		-0.80781295		0.37287709		0
C		4.04285821		4.50269803		0.98595049		2.63303818		-2.29466300		-2.68842133		0
C		4.81483824		0.73823264		0.65227071		-4.84122823		5.32327651		2.32526173		0
C		4.29992852		1.05327952		2.23690889		3.34229708		1.65546004		1.38239659		0
C		5.21785784		2.31963904		0.06702268		-0.98172405		1.10902024		-0.76723166		0
C		4.55003802		4.15600828		2.36909885		-2.39650602		2.17696012		-0.32642340		0
16
Lattice="4.550788318219 0.0 0.0 -0.6421571887955649 6.458196632340676 0.0 -0.05895546266252715 0.028988521587055033 4.684749873942413" Properties=species:S:1:pos:R:3:force:R:3:tags:I:1 config_type=shaiducarbon energy=-4062.0760313315714 unit_cell=conventional pbc="T T T"
C		1.53915943		2.11530926		0.06721059		-0.97969725		0.07830352		0.75050122		0
C		0.38024794		2.36212900		0.86981356		0.69836564		-2.62788774		-0.78570685		0
C		1.49399923		2.01078903		3.21520886		0.57001890		1.21692386		0.64963085		0
C		0.37187176		2.11274898		2.43656897		0.12875915		1.41535302		-1.85256893		0
C		1.20155966		5.51628766		1.61754949		-0.29897428		0.47409662		1.42063586		0
C		0.03732101		5.43396800		0.86599363		1.11660551		1.16460444		0.52438949		0
C		0.01343939		5.58561801		4.04057851		0.00952826		-1.18258187		-1.54010458		0
C		1.16720940		5.58966776		3.23290869		0.15440283		-0.22934566		0.22986323		0
C		3.78583857		2.22297909		0.04678347		1.79935143		-0.55793444		0.77288783		0
C		2.68447908		2.05531940		0.86465479		-1.28923774		0.10959798		0.21415532		0
C		3.77963858		2.09086925		3.18891895		-0.50579140		1.13229285		1.76162868		0
C		2.64847916		2.00748925		2.44001893		-0.38604784		0.69850576		-1.69218365		0
C		3.46698850		5.57690780		1.70935937		0.24413055		-0.18784777		-1.08628112		0
C		2.36863890		5.67938792		0.86931070		-1.26935075		-0.94099440		0.09878340		0
C		2.32621918		5.68066760		4.02503847		-1.74889863		-0.73903178		-0.63650150		0
C		3.42370868		5.58452764		3.19784896		1.75683563		0.17594561		1.17087126		0
16
Lattice="9.383903678655 0.0 0.0 -0.4934431910383945 7.9383602364765915 0.0 -0.19397467294147752 0.13339219079208084 2.4812730429025978" Properties=species:S:1:pos:R:3:force:R:3:tags:I:1 config_type=shaiducarbon energy=-4052.2077612443854 unit_cell=conventional pbc="T T T"
C		-0.35550731		0.83636763		0.53110455		4.32709334		1.24163013		-4.00948523		0
C		0.45474397		1.06725952		1.90502910		-2.77940863		-1.98972711		-6.20551576		0
C		1.05322964		4.95683786		1.47661918		-1.95534423		1.50612794		-2.06108633		0
C		2.89848891		0.94533258		0.14646115		-3.77290525		-0.89716529		4.23552163		0
C		1.92231894		0.96028583		1.27763913		2.38171111		1.12239512		6.00611036		0
C		1.87716923		4.98135800		0.23198136		1.34391974		-0.48227685		1.25042613		0
C		5.26791802		1.04838943		-0.10613852		-4.12551818		-0.99468088		4.62457972		0
C		4.28535855		0.88935572		1.00322000		3.51620637		1.83719784		-5.33058051		0
C		3.44085883		5.03173830		0.29753731		1.79170007		-1.45469787		-0.31033445		0
C		4.19602848		4.98711784		1.54230932		-3.74661082		1.12223777		-1.81921733		0
C		6.65774735		1.18005967		0.76265050		4.97012802		-2.29811960		-4.93729655		0
C		6.49903738		4.87334833		0.14654186		2.73786111		0.71085195		1.26745328		0
C		5.68208787		4.97320808		1.39619912		-0.55875720		-0.37005736		0.27698696		0
C		7.48882715		1.01347004		2.14617947		-4.49456767		2.00579291		5.61204144		0
C		8.09661696		4.93633778		0.14860162		0.55343784		0.29028086		-1.46835043		0
C		8.81370672		5.07661776		1.33098944		-0.18894563		-1.34978958		2.86874682		0
16
Lattice="4.1413053346719995 0.0 0.0 0.3586825963412765 6.507845985559644 0.0 0.21398538794783692 0.21509525777752897 5.076842774995744" Properties=species:S:1:pos:R:3:force:R:3:tags:I:1 config_type=shaiducarbon energy=-4067.9972703142616 unit_cell=conventional pbc="T T T"
C		0.67907178		1.09235128		0.63706280		-0.00198952		0.04766726		0.00184734		0
C		2.07239740		1.10065087		0.64356092		-0.00293517		-0.04829821		0.01057187		0
C		3.74873030		4.36101898		0.69876162		-0.00482365		-0.04586389		-0.00175606		0
C		4.30344821		1.25476168		4.45133629		0.00285573		0.01780002		0.01017746		0
C		2.46230751		4.46043101		3.23071056		0.00153444		0.04736721		-0.00898396		0
C		1.83840122		4.51542672		4.50663804		0.00639434		0.01145787		-0.00869059		0
C		2.80320651		1.15315641		1.90617741		-0.00291409		-0.01178080		0.00044634		0
C		0.33816450		4.41381979		1.96129156		0.00438579		-0.01871893		-0.00681343		0
C		0.78607110		1.19986122		3.17550986		-0.00482262		0.04789737		0.00051551		0
C		1.73148804		4.40782111		1.96808951		0.00192576		0.01329056		-0.00388674		0
C		0.44516630		4.52122993		4.49984050		0.00225820		-0.01669856		-0.01360500		0
C		2.91021991		1.26076036		4.44453834		-0.00402532		-0.01278559		0.00355147		0
C		4.19644971		1.14725836		1.91288881		0.00285213		0.01690245		0.01236933		0
C		2.35540758		4.35291693		0.69216162		-0.00135086		0.04678383		-0.00243407		0
C		3.85563975		4.46862624		3.23720910		-0.00126678		-0.04694838		-0.00283156		0
C		2.17930106		1.20816081		3.18200840		0.00192190		-0.04807195		0.00952157		0
16
Lattice="4.821637511306 0.0 0.0 0.32087515473990297 6.065967147123762 0.0 -2.2697858584472996 1.4797316223947437 4.522479011917019" Properties=species:S:1:pos:R:3:force:R:3:tags:I:1 config_type=shaiducarbon energy=-4061.003846948787 unit_cell=conventional pbc="T T T"
C		0.10300802		1.45394936		0.16026014		1.15472112		-0.11503613		-0.94128134		0
C		1.35739945		1.66757924		0.85045682		0.62927747		0.10645481		-0.15861945		0
C		-0.96132362		2.18356919		2.42524895		-1.38239993		-0.11465021		-1.50641616		0
C		0.25820592		2.40255929		3.10227870		0.29599539		0.65445990		1.00510156		0
C		0.56178393		4.59744824		0.70048171		-0.64402713		0.53030381		0.18330360		0
C		0.63921895		5.07832799		2.04396929		-1.03758054		-0.73183577		-1.24904314		0
C		-0.83848951		5.77167802		4.22403845		-1.00216459		0.36961590		-1.70448870		0
C		2.56938891		1.45074924		0.05525597		-1.46203451		0.06987518		1.96062657		0
C		3.73833851		1.71584914		0.88547059		1.06298923		-0.44689433		-0.54640792		0
C		1.44378969		2.18335897		2.37034931		0.55652599		-0.14014066		-0.69656689		0
C		2.66341904		2.47156898		3.11637862		-0.87413718		-0.35654029		0.84925300		0
C		3.84007844		4.65865845		0.70804397		1.72797292		-0.49354986		-0.73225177		0
C		3.98674831		5.08508793		2.05329916		-1.91231781		0.73910094		0.13964083		0
C		3.09231864		5.48209819		3.02144877		0.64110610		-0.80889976		1.22616750		0
C		1.51238954		5.40511785		3.02746907		0.85570339		1.08420701		1.24526027		0
C		0.67404178		5.83559799		4.18603865		1.39037010		-0.34647056		0.92572204		0
16
Lattice="9.303568259931 0.0 0.0 0.6124073807099579 9.214858736572557 0.0 0.05359785674546249 -0.17318592315861553 2.4959426856377687" Properties=species:S:1:pos:R:3:force:R:3:tags:I:1 config_type=shaiducarbon energy=-4061.7556583673845 unit_cell=conventional pbc="T T T"
C		1.22725974		2.70942888		1.35927923		0.20836956		-0.58678481		-1.25752907		0
C		1.38527992		6.07977766		0.25734786		-4.99850505		0.02750183		-2.03274504		0
C		2.05351894		5.89849763		1.43909920		2.24874487		0.09056486		-0.08116928		0
C		3.47527908		2.64787926		0.01192159		4.73646856		1.27788399		-0.27146808		0
C		1.93483890		2.68678864		0.09675339		1.69094669		0.84331555		-0.44777544		0
C		3.54366868		5.79957744		1.18171970		1.76998298		1.81410674		3.28973006		0
C		4.47128839		2.67474889		1.21669926		-6.06978352		-1.98683410		1.98090307		0
C		4.29126807		6.03729757		-0.02835728		-0.77795214		-1.33911281		-0.31905924		0
C		6.67712721		2.57183933		0.10880895		1.04616880		1.87044840		0.24736988		0
C		5.95057808		2.56728896		1.34044974		-0.00505042		-0.39740852		-0.45982621		0
C		5.80068829		6.05717743		0.03590898		1.13160714		-0.44995960		1.43191299		0
C		6.61141797		5.93976733		1.35678960		0.75832432		-0.43757973		-0.70378784		0
C		9.04869701		2.76935874		1.24658976		-0.15843536		-1.11482348		6.61300147		0
C		8.27916724		2.60850935		2.69508929		-1.45689102		-0.37527439		-6.49727166		0
C		8.98156618		6.15035732		0.28204325		1.86240238		-2.55120299		-0.68536330		0
C		8.31678715		5.79563738		1.50687941		-1.98639778		3.31515932		-0.80692284		0
16
Lattice="5.080692407417 0.0 0.0 2.187771554095797 4.264961837944163 0.0 -1.9867793624583805 -0.2615184802869752 4.256497404393407" Properties=species:S:1:pos:R:3:force:R:3:tags:I:1 config_type=shaiducarbon energy=-4061.5628841295406 unit_cell=conventional pbc="T T T"
C		-0.30818413		0.11514119		1.62072919		0.99953435		-0.69118840		1.67861721		0
C		-1.30871930		-0.01302639		3.74547831		0.99451735		-0.38022480		1.98385187		0
C		3.29716869		2.30235895		0.98946840		-1.23311617		-0.69998492		-1.33236520		0
C		2.14437939		1.67751914		1.70305927		0.46229216		1.27844655		-0.56805123		0
C		1.11584961		1.54458943		3.80787836		1.00849440		1.21167984		0.70825488		0
C		2.30380898		2.12159909		3.10777876		-1.61889455		1.31315339		0.43860971		0
C		3.11807885		3.89650850		0.92067380		0.09282075		0.02331427		0.77862988		0
C		2.12701917		3.76046839		3.10582879		0.07521125		-0.53114584		-1.79853510		0
C		2.26454895		0.15035903		1.67779959		-0.61100617		-2.00856919		-0.11813328		0
C		1.24194935		-0.00488509		3.81182860		0.14725156		-0.94644746		-0.16629831		0
C		4.65715827		1.65712931		1.66282933		0.57469856		2.17534213		0.70950006		0
C		5.82348761		2.27738938		0.97350741		-0.92045744		0.20582674		0.40448960		0
C		4.78736828		2.17597927		3.10588875		0.90524730		-0.84151654		-1.25898894		0
C		3.67314856		1.58391958		3.81726850		-0.33110306		-0.74919484		-0.33926478		0
C		5.66102789		3.88992850		0.96156880		-0.21554937		-0.17563733		-0.16227839		0
C		4.66048815		3.74359846		3.09588893		-0.32994092		0.81614693		-0.95803800		0
16
Lattice="4.353568283735 0.0 0.0 -0.595076187998886 5.627052310251743 0.0 -0.11474699925440339 -0.7489878875337693 4.931251966440365" Properties=species:S:1:pos:R:3:force:R:3:tags:I:1 config_type=shaiducarbon energy=-4067.454890045423 unit_cell=conventional pbc="T T T"
C		1.10980118		0.96780345		2.86475677		-0.13376200		0.24629259		-0.40999305		0
C		0.40897551		1.15835827		1.62001979		0.12451579		-0.23129533		0.39693621		0
C		2.61444749		1.34560045		0.38720201		0.12433170		-0.23134341		0.39740492		0
C		0.35160288		0.78385475		4.08563620		0.12455667		-0.23128788		0.39762347		0
C		2.55707704		0.97111217		2.85282799		0.12437387		-0.23134958		0.39744632		0
C		1.16716815		1.34227955		0.39913558		-0.13356223		0.24659187		-0.41038592		0
C		3.25789966		0.78054386		4.09757934		-0.13380391		0.24654739		-0.41060086		0
C		3.31526793		1.15504955		1.63194857		-0.13357148		0.24633013		-0.41021957		0
C		1.78535786		3.51437925		4.62069670		-0.12476056		0.23106445		-0.39818808		0
C		1.14192050		4.07941799		0.91032373		0.13391267		-0.24629233		0.41125495		0
C		3.23263851		3.51768927		4.60875791		0.13424486		-0.24644223		0.41132412		0
C		-0.30535971		4.07610885		0.92225773		-0.12493771		0.23122977		-0.39848042		0
C		1.84273789		3.88885622		2.15507072		-0.12508504		0.23130150		-0.39840431		0
C		3.29000984		3.89216710		2.14312714		0.13441943		-0.24627176		0.41153777		0
C		-0.36273365		3.70161577		3.38787849		-0.12515728		0.23124931		-0.39830764		0
C		1.08453742		3.70492971		3.37595015		0.13428548		-0.24632473		0.41105261		0
16
Lattice="7.348854039879001 0.0 0.0 0.9347301407483697 4.268229124069804 0.0 0.41016893938180654 -0.960458478741986 4.011291140273514" Properties=species:S:1:pos:R:3:force:R:3:tags:I:1 config_type=shaiducarbon energy=-4066.1079536925226 unit_cell=conventional pbc="T T T"
C		1.78718913		-0.30011397		1.36907975		-1.94148392		-1.16936742		0.04453411		0
C		2.00099889		-0.88928483		4.08788825		0.47936867		0.58549566		-1.59379234		0
C		1.90909927		2.86026879		3.34376901		0.24855131		-0.18785240		0.45584383		0
C		1.83912936		3.10059910		1.98279945		-0.03357812		0.79778642		0.99687197		0
C		2.78927886		0.19533695		2.08309882		1.05217824		0.83148949		2.06408707		0
C		2.88919903		-0.03065574		3.45408853		-1.06780619		-1.20027544		-0.58532623		0
C		3.71733845		0.95977357		1.45749969		1.36785210		0.81286749		-0.27595106		0
C		3.96952834		0.37627602		4.14780860		1.20924680		-0.32194684		0.19655636		0
C		4.92197804		1.21574958		2.09600928		-1.12056295		-0.54939169		0.02358398		0
C		5.04647791		0.86075952		3.43759844		-1.15888708		0.69922876		-1.30391695		0
C		5.95927760		1.70652957		1.34556930		0.70132189		-0.20400639		1.49482125		0
C		6.21632729		1.07121967		4.05077800		1.60282952		0.39583064		-1.00586467		0
C		7.17027689		1.93110908		1.97130952		-1.42326148		-0.01553487		0.61904396		0
C		8.08590662		2.69396863		1.30628967		0.42094699		-0.38980397		0.98325437		0
C		7.26519689		1.64872937		3.32757875		-1.17169067		-0.39350841		-0.48771216		0
C		8.32411679		2.10019887		4.02733810		0.83497462		0.30898899		-1.62603323		0
16
Lattice="4.827423003447 0.0 0.0 0.6639782421631107 4.550816492772491 0.0 -0.053975416601540906 -0.3017718667914789 4.307326103901627" Properties=species:S:1:pos:R:3:force:R:3:tags:I:1 config_type=shaiducarbon energy=-4056.4570399381614 unit_cell=conventional pbc="T T T"
C		0.67668595		1.86926943		3.00853884		-3.12430490		1.55482210		-1.88340677		0
C		1.45377940		3.10681890		0.86436650		-4.51798992		1.34940931		2.56715541		0
C		0.94913653		3.32868871		2.35945899		1.61092876		-0.49817348		0.10424494		0
C		1.78574921		1.06405961		2.70873898		2.29338979		-1.10399064		-2.77884324		0
C		1.68008948		4.55405811		0.32730169		-0.57807648		0.93470188		1.30926973		0
C		2.04482928		4.20511846		3.25083879		2.70613624		-2.13682055		-2.92057258		0
C		2.22357910		0.69787785		0.91570084		-1.81881315		1.95550107		3.81118952		0
C		3.07731900		2.10635913		2.38202912		1.08962510		-3.02638667		-1.05775343		0
C		2.63199888		2.36766899		0.88369261		2.27356246		-3.36721108		2.07505977		0
C		3.47460867		3.31638892		3.19358893		-4.51201802		1.22845064		-3.05918009		0
C		3.79968878		3.16305886		0.21403104		1.36161872		-2.60206305		-0.98366035		0
C		4.04506863		4.35316828		0.96395141		0.40592042		2.77917183		0.15768768		0
C		4.65140840		0.90902982		0.65543998		1.12386785		-2.28446677		3.32024856		0
C		4.30000821		1.16425954		2.26357913		0.84308697		-0.16793379		-0.80987138		0
C		5.03756797		2.25829938		0.14798272		0.78393767		2.22994546		-1.42445036		0
C		4.52310805		4.06184826		2.33248914		0.05912822		3.15504323		1.57288257		0
16
Lattice="4.770883616059001 0.0 0.0 0.09022218006329176 4.85530917252878 0.0 -1.118562289086729 -1.2242946117858287 4.033438593757528" Properties=species:S:1:pos:R:3:force:R:3:tags:I:1 config_type=shaiducarbon energy=-4062.514918633559 unit_cell=conventional pbc="T T T"
C		-0.18971610		0.39891791		1.69915926		-0.49799401		1.12345082		-1.75539273		0
C		-0.31639975		0.42358386		3.13835881		1.02055751		-1.43879404		3.30651321		0
C		-0.17540297		2.87697879		1.69503913		0.41667330		-2.30762703		-0.41016326		0
C		-0.25153005		2.82154876		3.21788848		-0.27419731		0.01984585		-1.63019482		0
C		1.42631959		0.42820970		1.19170948		0.53825109		-0.08194523		-0.69812447		0
C		0.37908582		-0.85748284		3.69561853		0.73518078		2.89804456		0.97618152		0
C		0.47547485		1.60210947		3.71676833		-0.53030406		0.37220526		-0.09714278		0
C		1.46961917		2.86489891		1.19995929		0.68602125		-1.33939897		-0.33085495		0
C		2.06441907		-0.76377553		3.19274879		0.48312968		-2.08050511		-0.26224964		0
C		2.23969895		1.62845954		1.68804931		-1.63842030		-0.19315505		0.81854655		0
C		2.11836917		1.61874936		3.26376864		0.30919185		1.06092309		-2.77704141		0
C		2.21284889		4.05817849		1.69388935		0.41336814		0.83396418		-0.07601190		0
C		2.81400885		0.41042576		3.73328847		0.04788683		0.02072516		-1.49348890		0
C		3.84243865		1.59833952		1.15133969		0.75871127		1.57423163		2.23397310		0
C		3.94300840		4.07322824		1.12980965		-0.45576361		-0.08552833		1.52843279		0
C		2.94317862		2.85445879		3.67994856		-2.01229241		-0.37643756		0.66701769		0
24
Lattice="5.709248848017 0.0 0.0 0.31380886293125443 4.542421114703526 0.0 -0.08896722479864891 1.6547401398650072 7.145496034468397" Properties=species:S:1:pos:R:3:force:R:3:tags:I:1 config_type=shaiducarbon energy=-6093.240287807004 unit_cell=conventional pbc="T T T"
C		2.09752893		3.21701842		0.18673982		0.70914242		0.80223983		-2.34037700		0
C		1.49371934		3.81512847		1.27451958		-0.27758988		-0.83950722		-0.70872745		0
C		2.08970897		4.99601808		2.08918886		1.53662665		-0.56846441		-2.78243327		0
C		2.08537907		2.54133910		4.29250845		-0.13598472		0.16582137		-0.42329724		0
C		1.28567945		5.35320753		3.07739874		-2.85359787		-0.97720147		3.04932659		0
C		1.03263983		1.67871956		4.19776803		0.52178188		1.34570743		0.76250468		0
C		2.18969904		3.50554845		5.39704771		-0.79015332		-1.16476154		-0.76189147		0
C		1.33486920		3.79827819		6.46557702		0.76880286		0.65752723		1.26831511		0
C		0.13575566		3.21334852		6.79565724		-1.74558139		0.33771852		2.94683899		0
C		5.22926773		1.99454892		0.87297270		0.91548004		-0.16099155		-2.58754710		0
C		3.96126811		1.26447930		0.99449634		-0.03726508		-1.06784502		-0.39918541		0
C		2.93931885		1.35186963		2.02999936		0.89478496		-0.00630949		-0.57126588		0
C		5.86340770		3.08987859		1.52754949		0.67304925		0.80851409		0.74510499		0
C		5.25244785		3.58170868		2.63151897		-1.58961404		0.67221955		1.94147800		0
C		4.03703841		3.31650837		3.39588862		1.37267318		0.29113472		-1.27998561		0
C		3.02553878		2.40577869		3.13250841		-0.09324601		-0.04676069		1.65534820		0
C		5.85697737		4.60081817		3.32223874		0.71248357		0.64519750		-0.23946502		0
C		4.09780822		4.30265835		4.53375790		0.77452846		-2.77287519		-3.72003716		0
C		3.26536834		4.35728787		5.49949790		-2.65690112		1.73451432		3.48208909		0
C		5.21057793		5.00817764		4.48015833		2.63718075		1.43431209		-1.50599013		0
C		5.60050764		1.52479935		5.07310778		-1.29490985		-0.90323849		0.40040797		0
C		3.83456846		1.89562933		6.91174683		0.34884138		-0.24658441		1.51814143		0
C		3.23163867		5.31784787		6.61381710		-0.43147721		0.17999202		1.04113123		0