16
Lattice="4.617791651605 0.0 0.0 -0.2174194843325182 4.701784663956043 0.0 -1.2854454264739805 -1.3569981081156 4.143590626901682" Properties=species:S:1:pos:R:3:force:R:3:tags:I:1 config_type=shaiducarbon energy=-4059.771158594945 unit_cell=conventional pbc="T T T"
C		0.34727871		0.02838187		1.68491950		0.79631266		-1.86409648		-0.10596527		0
C		0.08995504		-0.10499473		3.24115869		2.72868586		1.07823691		-1.86924152		0
C		0.30007288		2.31864906		1.64039937		0.30288801		0.77121122		0.38423907		0
C		0.10264381		2.22321917		3.18601857		0.78815531		2.05580605		-0.24422851		0
C		2.00788923		0.00250053		1.12200931		-0.19288456		1.37271946		-0.76529356		0
C		1.92115926		2.36969921		1.07796943		0.71920393		-2.28200700		0.84686598		0
C		0.88004072		1.04874943		3.71168857		-1.93179239		1.08108929		0.06550636		0
C		0.68519070		3.47088875		3.72450849		-0.04841237		-2.61647307		0.29233131		0
C		2.68881909		1.14187967		1.65844939		-0.83658619		2.43633733		-0.67529460		0
C		2.47435915		1.11322950		3.15502857		0.00195250		-0.67225992		1.57789263		0
C		2.45796876		3.54360835		1.62211938		2.03851023		-0.90130142		1.93566705		0
C		2.35322893		3.48952846		3.16300857		-1.08880672		-2.50566640		-0.07976622		0
C		4.25519803		1.16839965		1.10905964		-0.28453958		0.11443989		-0.24626174		0
C		3.19219856		-0.09474138		3.71443847		0.14723074		1.71065730		0.75244986		0
C		3.12082874		2.27869916		3.76256833		-0.53016419		-0.61550175		-3.17475204		0
C		4.29700844		3.51855867		1.07067979		-2.60975322		0.83680834		1.30585093		0
24
Lattice="8.346758563638 0.0 0.0 -3.3171354013267593 7.193971044896829 0.0 -0.19905349822563903 0.40889100851549837 2.8878616083988575" Properties=species:S:1:pos:R:3:force:R:3:tags:I:1 config_type=shaiducarbon energy=-6089.503947467793 unit_cell=conventional pbc="T T T"
C		6.08221035		0.53595872		0.74207024		1.71521484		2.25523176		-0.69052017		0
C		7.53901102		0.60864730		0.80060689		-1.03125433		-2.40481121		0.85253039		0
C		1.89419669		6.61017872		1.12141122		0.42984481		-0.59905207		0.02820837		0
C		-0.22097626		5.49493993		1.21200026		-1.57706679		-2.23557412		-0.25068327		0
C		1.73589958		4.05442712		0.71864673		-1.31019996		0.08926749		0.64318586		0
C		0.30966224		4.20138015		0.83582187		1.24823427		0.27953107		-0.34104476		0
C		2.28034529		2.77006047		0.35613115		1.65255829		2.98087965		-0.56512891		0
C		5.58612660		1.74692231		0.14402081		0.63166834		-2.69723071		0.63956549		0
C		2.48012245		5.30244531		0.92427998		0.87952442		1.11043846		-0.10801804		0
C		-2.18801178		6.71235890		1.54620948		-2.97851244		-4.60856559		-0.29470444		0
C		4.00453771		1.96898198		2.56686864		1.74587629		2.75689886		0.38186851		0
C		4.76582887		6.51886601		1.22395031		-0.31129990		2.93126607		-0.80938236		0
C		6.43899004		2.93444988		0.42015162		1.36709517		1.75639803		0.66497624		0
C		-0.45893150		2.98309061		0.55811102		-0.79313760		-1.70561690		-0.05747577		0
C		5.89925775		4.22419602		0.73717820		-0.74720609		-2.24832603		-1.11678369		0
C		1.81488830		0.84054530		1.82299050		1.56101692		-0.46309615		0.80610625		0
C		0.50298318		6.74181879		1.50841035		2.08045909		-0.23965528		-0.76693958		0
C		-1.66263925		5.41655635		1.19940917		1.55172212		1.43550765		0.49612251		0
C		4.47551024		4.04947916		0.56714138		0.66728380		2.91460376		0.99524318		0
C		3.92024213		5.32577951		0.93258834		-0.78851321		-1.50730216		-0.49877563		0
C		3.68412151		2.85520074		0.14613755		-1.59663932		-1.24114059		0.03943715		0
C		0.12619130		1.67525955		0.48156790		-2.20248991		0.57050123		-0.14833400		0
C		3.29660071		0.81238417		2.01613950		0.49451968		-1.39868223		0.23162469		0
C		1.59223184		1.42875723		0.32953921		-2.68869849		2.26852875		-0.13107777		0
16
Lattice="4.778146570384 0.0 0.0 0.09035952979253183 4.8627006520935145 0.0 -1.1202651323059512 -1.2261584165988015 4.039578898706604" Properties=species:S:1:pos:R:3:force:R:3:tags:I:1 config_type=shaiducarbon energy=-4062.3836278649896 unit_cell=conventional pbc="T T T"
C		-0.24845311		0.47004587		1.70247943		1.48689710		-2.85587509		-0.19845821		0
C		-0.23855709		0.43556390		3.19889841		-1.89322864		-0.94680150		-0.86103843		0
C		-0.17871893		2.86113888		1.67843914		1.42331187		-1.71957235		0.99647268		0
C		-0.22405207		2.87632860		3.17053868		-1.14020774		-2.24613211		1.01491779		0
C		1.44388948		0.43984081		1.14953940		0.45358871		-2.50274871		1.78051422		0
C		0.38303295		-0.83279750		3.73955860		0.77044297		1.96966194		-1.85983307		0
C		0.42435580		1.62305946		3.70072851		1.55905568		1.06323194		0.99491330		0
C		1.52956929		2.79620864		1.19066969		-0.59801952		2.38687775		-1.10163396		0
C		2.11067888		-0.79920856		3.20486871		-0.96038773		-1.21728202		-0.17548230		0
C		2.20420918		1.57854912		1.67165942		-0.16093987		2.06797278		0.74985227		0
C		2.07012913		1.65877945		3.19554845		1.05273900		-2.36429393		-0.44631943		0
C		2.27740896		4.04204824		1.71274910		-1.15571562		-0.24820575		-0.84095733		0
C		2.78088895		0.39320276		3.69241836		0.84581672		1.75159212		0.87915701		0
C		3.87931843		1.64364945		1.13869970		-1.03170916		-0.03710079		1.05298223		0
C		3.92187834		4.01989819		1.22161966		-1.13702163		3.50899571		-2.09957783		0
C		2.83925879		2.81050868		3.72884838		0.48537786		1.38968002		0.11449080		0
16
Lattice="4.9970872040100005 0.0 0.0 -1.4857189762346412 4.148127061833537 0.0 0.7147233886151422 -0.00937953268192677 4.803639964168365" Properties=species:S:1:pos:R:3:force:R:3:tags:I:1 config_type=shaiducarbon energy=-4056.4319190575375 unit_cell=conventional pbc="T T T"
C		1.25448926		0.87755947		1.17017940		0.67954643		-3.33386488		-2.09851571		0
C		0.68759870		1.49012941		2.30743900		-0.08936364		1.90746228		0.80590777		0
C		0.80168170		0.96989865		3.70405841		1.03583861		-1.97071070		-0.73591046		0
C		2.04507893		1.41986936		4.58431831		-0.12847967		1.23466037		-0.26012873		0
C		1.30467950		2.93165864		0.02887017		-0.60371529		1.92089245		0.23955089		0
C		0.01706155		3.49391840		0.97520855		-0.27512548		-1.21546913		0.24728889		0
C		0.08869380		2.80780883		2.29866911		-0.35949912		1.15302419		0.82084100		0
C		-0.36561688		3.57464834		3.53509840		-0.13064839		0.45853449		0.39763787		0
C		3.69244868		0.81622472		1.09130938		-0.14201165		0.21244476		-0.96838181		0
C		3.17036850		1.58143918		2.27935886		0.89847603		0.24568735		-0.73920456		0
C		3.30177840		0.96768344		3.58437867		-0.26027323		-1.15196875		2.76081105		0
C		4.57031797		1.43272936		4.54883799		-1.28832499		0.01155660		1.45569905		0
C		3.81823835		2.95285878		0.08699379		-0.15898531		1.22432762		-1.81091523		0
C		2.46992878		3.48652871		0.97244067		0.88549221		0.35910420		-0.67944230		0
C		2.64224884		2.96730886		2.32024903		-0.86984241		-2.08718305		0.76762530		0
C		2.01821908		3.59303862		3.50080838		0.80691615		1.03150219		-0.20286302		0
16
Lattice="4.718773969338001 0.0 0.0 0.08923673453415092 4.802277393499406 0.0 -1.1063448697551101 -1.210922338463579 3.989383639349487" Properties=species:S:1:pos:R:3:force:R:3:tags:I:1 config_type=shaiducarbon energy=-4062.023011558892 unit_cell=conventional pbc="T T T"
C		-0.25366100		0.44891396		1.69212922		1.41776857		0.19202402		-0.27311719		0
C		-0.30793492		0.38578101		3.16137848		1.35610524		1.77750037		1.59130917		0
C		-0.16662604		2.84633898		1.66380950		1.35589081		-0.59865406		2.68250830		0
C		-0.24303102		2.80930887		3.20221853		0.60918377		0.45971206		-0.99834984		0
C		1.47635951		0.52214791		1.18216943		-0.59292487		-2.06462391		1.16908305		0
C		0.41773183		-0.77760582		3.72116853		0.52062565		-0.48644384		-1.50870470		0
C		0.48889566		1.62023917		3.67243822		0.16946231		-0.66689222		0.07355906		0
C		1.55885925		2.90834886		1.18152957		-1.53002996		-1.23076798		-0.10392407		0
C		2.10828922		-0.81781874		3.23314868		-0.53033800		1.78200726		-1.96658202		0
C		2.22371893		1.68761949		1.69685932		-0.42952163		-0.00261944		-1.27484675		0
C		2.12786883		1.58156929		3.15568859		0.19740971		0.96544612		0.79687522		0
C		2.28318917		4.09049800		1.72077926		-0.91832497		-0.71730722		-0.60373251		0
C		2.91192852		0.40236703		3.68080838		-3.45140501		-0.22162515		0.20690917		0
C		3.75414851		1.68948907		1.18174946		2.68055709		-1.88401946		0.19091998		0
C		3.89958820		4.01300818		1.18212932		-1.25683256		2.16944067		-0.22038279		0
C		2.86375880		2.77037898		3.68804840		0.40237384		0.52682279		0.23847566		0
16
Lattice="4.786614989915 0.0 0.0 0.09051967607428256 4.871318928776534 0.0 -1.1222506040755111 -1.2283315654820075 4.046738337693858" Properties=species:S:1:pos:R:3:force:R:3:tags:I:1 config_type=shaiducarbon energy=-4062.2628077695376 unit_cell=conventional pbc="T T T"
C		-0.24572184		0.37106605		1.70540917		0.55257035		0.96413358		-1.02354719		0
C		-0.31172687		0.37846999		3.18257866		0.35659994		2.45949116		0.92798178		0
C		-0.14132576		2.83326873		1.68708936		-0.51116887		-0.18068981		-0.80613042		0
C		-0.22231912		2.84064874		3.15839860		-0.27072760		1.18924669		1.42613469		0
C		1.42576938		0.41436386		1.19093949		-0.06367728		-0.13609811		-0.04284284		0
C		0.37227898		-0.80241473		3.73844826		0.34291883		-0.77070676		-0.69462571		0
C		0.51255265		1.70356920		3.68108834		-0.92104417		-4.27922090		1.25682561		0
C		1.52924930		2.84332876		1.17027950		-1.48623941		1.70907375		-0.80711413		0
C		2.06971892		-0.84541577		3.16779855		0.51730404		1.79412565		3.23852264		0
C		2.12198923		1.65277938		1.69446937		2.27923997		-2.07396988		0.74976666		0
C		2.10152933		1.58834915		3.21914888		-0.59789687		3.72104966		-1.20493711		0
C		2.18852893		4.06139830		1.74140930		0.82593616		-0.25648316		-2.34277995		0
C		2.81498865		0.46756182		3.71015841		0.67022412		-4.69917622		0.50600840		0
C		3.89367819		1.62152949		1.17661937		-0.55068290		0.12819582		-0.33473321		0
C		3.96813829		4.03643850		1.14072933		-0.76893219		0.63026709		1.67958472		0
C		2.87352895		2.82850892		3.74431857		-0.37442439		-0.19923828		-2.52811395		0
16
Lattice="4.793318074974 0.0 0.0 0.09064643811583331 4.87814063162874 0.0 -1.1238221825861041 -1.2300516977636782 4.0524053134891185" Properties=species:S:1:pos:R:3:force:R:3:tags:I:1 config_type=shaiducarbon energy=-4061.6355171962664 unit_cell=conventional pbc="T T T"
C		-0.26450392		0.44489805		1.73733957		1.33613084		-3.06481672		-2.02756349		0
C		-0.34808405		0.38914505		3.16246877		1.37881427		0.50091787		3.33186636		0
C		-0.18669015		2.86180885		1.64353961		1.15393101		-1.86191361		3.03831917		0
C		-0.18399870		2.82667911		3.24527861		-2.33288634		-0.31716125		-3.02803295		0
C		1.37799938		0.46539284		1.15857949		1.98594938		-2.54676732		2.20693510		0
C		0.31674198		-0.87100869		3.75246871		0.60972653		3.16343223		-0.61001475		0
C		0.45744600		1.63140916		3.73236841		0.33138948		-1.39073725		-0.99384038		0
C		1.54391960		2.83092886		1.15084979		-0.78458328		0.84336285		0.61144763		0
C		2.21368898		-0.83604383		3.16715903		-3.07995153		1.27398723		0.47326435		0
C		2.23687905		1.62224961		1.65729931		-1.15005919		0.25444736		0.97567321		0
C		2.12330905		1.69889956		3.19467891		-0.72377741		-4.11123209		-1.11367034		0
C		2.21411894		4.03921842		1.72957919		0.26452455		1.34334227		-2.49295383		0
C		2.79216913		0.40925877		3.67719875		1.55098138		0.25123991		1.88937353		0
C		3.88784831		1.58977919		1.21789968		-2.09355810		3.08605688		-3.14267647		0
C		3.90311838		4.04379843		1.19906961		-0.24950056		1.85174078		-1.83345045		0
C		2.84787899		2.82855905		3.69227853		1.80286895		0.72410111		2.71532306		0
16
Lattice="4.821520563189 0.0 0.0 0.3152936941886183 4.710992025798455 0.0 -0.7680585826748814 -0.9137118973682579 4.104478489593221" Properties=species:S:1:pos:R:3:force:R:3:tags:I:1 config_type=shaiducarbon energy=-4059.407041406679 unit_cell=conventional pbc="T T T"
C		0.65160488		1.72607929		1.29411926		0.58181487		-2.44559510		1.05296294		0
C		0.80750875		4.00149852		1.30901969		0.97709606		3.71941984		0.81031464		0
C		0.60501983		-0.50812896		2.83776909		-2.31998350		-0.50166581		0.33001189		0
C		0.60101556		1.85118907		2.81623907		2.07494407		-0.02128412		0.84179217		0
C		2.22426917		1.74219956		0.81606646		-0.26482692		-2.25364745		0.16071284		0
C		1.36217936		0.69285395		3.31786862		1.29518110		0.92602903		2.17204880		0
C		2.39713900		4.02270839		0.85248871		-0.41030236		3.29163499		-1.17865399		0
C		1.62542957		3.10317885		3.42809871		-0.65423596		-2.34557731		-0.22491385		0
C		2.95058881		0.59370276		1.42466965		0.16219637		-1.56331240		-4.28005831		0
C		3.01112879		0.66260662		2.85837868		1.01503837		0.29337055		2.15877727		0
C		2.98631869		2.88726875		1.40435947		2.80745938		-0.03713139		-1.60035509		0
C		3.13182881		3.05243861		2.86456903		1.09830258		-1.63828120		1.80989938		0
C		4.63027833		0.51143460		0.77320652		-0.68074457		-0.58449885		1.14641696		0
C		3.80269855		-0.54844362		3.37722877		-1.82969098		2.87209902		-0.76066506		0
C		4.87247825		2.86430867		0.81340064		-4.12608562		1.37952235		-2.22743555		0
C		3.88065868		1.89069950		3.38953860		0.27383684		-1.09108266		-0.21085453		0
16
Lattice="4.496642398402001 0.0 0.0 -0.7244585534489448 5.953756884392177 0.0 -0.31064604345120383 -1.4982992337171404 4.791271401630097" Properties=species:S:1:pos:R:3:force:R:3:tags:I:1 config_type=shaiducarbon energy=-4049.961742267712 unit_cell=conventional pbc="T T T"
C		1.59611919		1.85081891		2.38876123		-4.24167325		-1.33035614		-4.33825451		0
C		0.96901160		1.88964067		1.07774895		-2.33579272		-0.28382687		-2.88392405		0
C		1.18437918		5.08705964		0.66082657		-1.29682687		-0.17180485		-2.35365547		0
C		3.18245639		1.93195138		2.06092767		-1.57809189		1.83479899		0.24238297		0
C		0.13220129		5.35711899		1.53281951		2.49922887		1.76204649		4.85614399		0
C		4.02943766		-0.42950444		1.82096165		-0.72196350		-1.29159750		-2.36030795		0
C		2.66673692		5.11227636		0.58508152		-0.78632931		0.65456249		2.43138872		0
C		4.04419923		2.05369617		0.80246631		-1.89860097		0.20745399		2.05980849		0
C		1.68547782		0.67958251		3.26095967		-0.38967284		-3.76439618		-1.42756808		0
C		1.13037856		3.02486976		3.15660114		1.02252774		0.77146961		-1.89518243		0
C		0.16582538		3.34685004		4.17422909		2.00530312		-0.22932201		1.28791593		0
C		0.79136724		0.34546849		4.36868774		1.75207497		1.18974600		-1.61115733		0
C		2.58516063		3.11209563		2.93297772		0.72385814		2.32880162		4.67729277		0
C		3.83329906		0.46319958		4.13497925		2.71447665		0.27142514		2.12762139		0
C		3.23246805		3.38923764		4.26897649		-0.95369875		-1.09675529		-4.02688030		0
C		3.13056918		0.52992211		2.84286861		3.48518084		-0.85224576		3.21437534		0
16
Lattice="4.448347588674 0.0 0.0 0.17609228764524898 4.88784877878258 0.0 -1.4488979831925406 -1.258637708477365 4.099779519973095" Properties=species:S:1:pos:R:3:force:R:3:tags:I:1 config_type=shaiducarbon energy=-4061.8309849541565 unit_cell=conventional pbc="T T T"
C		0.28652474		0.00322639		1.61507935		-0.01062355		-0.03836423		-1.12210793		0
C		-0.00134963		-0.05849088		3.10257876		0.08419752		0.23477404		0.29167542		0
C		0.38655874		2.45989930		1.61029960		-0.26543961		-0.70722669		-1.25337571		0
C		0.09069736		2.38637923		3.09650899		-0.13576155		2.35443683		0.43527293		0
C		1.87001949		0.01805406		1.08311970		-1.01487459		0.26231623		-1.01880787		0
C		1.95687926		2.41971915		1.07814956		-1.24167846		2.23795522		-1.71732392		0
C		0.67507678		1.18143975		3.57490876		1.97794939		-1.59949737		2.96627783		0
C		0.79438369		3.60142892		3.66368888		0.21991048		0.68474161		-0.70081796		0
C		2.56255915		1.23731945		1.60765951		0.42439176		-1.26036165		-0.69890608		0
C		2.27182939		1.18327959		3.08622886		0.89229304		0.60724181		1.14845996		0
C		2.59770910		3.68618862		1.57951926		1.24816536		-2.00342595		0.47327052		0
C		2.32189910		3.62884853		3.09128886		1.92672603		0.25050226		0.97958026		0
C		4.12806834		1.24964938		1.09961951		-0.14602180		-0.69315863		-1.65480004		0
C		2.91115880		-0.05979157		3.59597880		-1.15300825		0.81414122		1.51919790		0
C		3.02155878		2.42174893		3.61207870		-1.48949160		-0.88725213		0.15055878		0
C		4.27107871		3.69053866		1.03644942		-1.31673391		-0.25682281		0.20184589		0
16
Lattice="4.7995009790420005 0.0 0.0 0.09076336301466327 4.884432948367127 0.0 -1.1252718015422711 -1.2316383422398 4.05763251370952" Properties=species:S:1:pos:R:3:force:R:3:tags:I:1 config_type=shaiducarbon energy=-4062.542466770718 unit_cell=conventional pbc="T T T"
C		-0.25545200		0.37763386		1.68615924		-0.19189032		0.67695733		0.61046598		0
C		-0.31551583		0.43048596		3.20026886		0.09268397		-0.50639536		-0.16633765		0
C		-0.12979290		2.83922880		1.65237940		-1.25817082		0.04950663		0.97086576		0
C		-0.19477575		2.84970899		3.15929888		-1.34180810		1.90854755		0.59825503		0
C		1.48775939		0.38853400		1.17375972		-1.43282213		1.73452821		0.44466286		0
C		0.37108494		-0.78312546		3.75686843		1.07787670		-0.91304417		-1.36191362		0
C		0.43336374		1.68256922		3.66643863		1.09185399		-3.48103982		2.10180338		0
C		1.45797945		2.83306864		1.15541939		0.83823016		1.15142393		0.01763932		0
C		2.09759935		-0.84191982		3.24075889		-0.77821876		0.66289236		-1.95771710		0
C		2.22158917		1.63740927		1.74581944		-0.75773451		-0.42689113		-3.46473979		0
C		2.12923910		1.61112913		3.18899867		-0.29201558		-0.05403203		1.27540031		0
C		2.20704909		4.07632849		1.67195944		1.16988138		-2.12491839		1.70980523		0
C		2.83558885		0.37288907		3.71153858		-0.54350052		0.82817662		0.95746953		0
C		3.84693826		1.64221933		1.19649928		1.03711851		-1.00553351		-0.89033026		0
C		3.87498846		4.03892838		1.19327929		1.13894173		0.63150893		-1.16793274		0
C		2.84669874		2.80282890		3.72704865		0.14957456		0.86831234		0.32260325		0
16
Lattice="4.806415205724 0.0 0.0 1.9037874180808365 4.684337065913816 0.0 -2.0681764309470085 -1.2688359373286675 3.927552572526955" Properties=species:S:1:pos:R:3:force:R:3:tags:I:1 config_type=shaiducarbon energy=-4059.491163396966 unit_cell=conventional pbc="T T T"
C		1.24512926		0.29957665		0.92421549		2.17525085		-2.44495644		-1.33345869		0
C		2.44477877		0.85313245		0.36544184		-0.48681125		1.43040298		1.55695535		0
C		0.28319110		-0.45891460		2.85127893		0.30009554		0.27931355		-0.49159170		0
C		1.37397915		0.33160804		2.36024883		0.80397866		0.09257161		0.59320641		0
C		2.28477897		2.48424905		0.87785953		1.35238896		1.46540523		0.19882613		0
C		1.18312938		1.99099934		2.82698875		1.84758484		-1.88917607		0.73528928		0
C		3.37532863		3.30489831		0.34762782		-0.75054262		-1.19647535		1.69324346		0
C		2.38899888		2.60848864		2.36278902		-0.44424223		1.01476506		-1.02363846		0
C		4.82852808		0.96829848		0.41045296		-1.49537146		-0.55608916		-0.72601967		0
C		3.71058859		0.10759305		0.91094161		1.21340505		2.52514587		-1.21323253		0
C		2.69004869		-0.38229794		2.86107873		-0.35180817		-0.22025578		-0.51287506		0
C		3.83991817		0.32524387		2.35104887		-1.29205053		-0.89424708		1.26103400		0
C		4.65549809		2.51721866		0.85231872		0.46673117		1.50761352		0.17044087		0
C		3.65975834		1.94070934		2.87273861		0.58958938		-0.60757657		-0.27250089		0
C		5.85191722		3.26595865		0.44076077		-1.92970748		-0.75919490		-1.90919778		0
C		4.77797805		2.67762892		2.31052886		-1.99849046		0.25275429		1.27351929		0
16
Lattice="5.2375579330579995 0.0 0.0 -1.002442400597636 4.23495316816444 0.0 0.9144566648801945 -0.7749071713117972 4.864989487047851" Properties=species:S:1:pos:R:3:force:R:3:tags:I:1 config_type=shaiducarbon energy=-4059.5725062873657 unit_cell=conventional pbc="T T T"
C		1.04546946		1.21921969		2.46438885		-0.01326176		0.61304608		-1.04495369		0
C		0.83808050		0.38202905		3.70880852		0.55874974		-1.05789458		-0.39800271		0
C		0.78792355		2.67469880		2.43057884		-0.80431574		-0.61315098		1.29233386		0
C		0.11920315		3.16838839		3.65419860		0.00290432		0.11979987		0.10390504		0
C		1.75075901		0.72069949		1.22855930		-1.39706269		0.58534088		1.23320950		0
C		1.00402938		3.53920854		1.22369937		-0.27776420		0.04604232		-0.61025181		0
C		1.87266894		1.62198946		-0.02284623		0.85883551		-0.14943366		0.40410214		0
C		3.55172840		0.38657158		3.69794845		-1.78896930		-1.45041929		-0.67655289		0
C		1.62843951		3.05182864		0.00906150		-0.14078652		-0.23804397		-0.15530298		0
C		2.76937866		3.16352846		3.63241822		-0.39473689		0.31012310		0.83213767		0
C		3.56818847		1.17929954		2.41024874		1.29875494		1.46793237		0.88640701		0
C		3.32031843		2.63741891		2.41795895		0.91011543		-0.23191523		0.26027554		0
C		4.51348807		1.64004909		0.06573973		-0.13635676		-0.69543663		-0.90843264		0
C		4.30089821		0.69909981		1.28530929		0.42426500		0.88274807		-1.19638819		0
C		4.19175798		3.04619879		0.03375501		1.10829775		-0.04467372		-0.65454295		0
C		3.57004833		3.52077862		1.22066944		-0.20866884		0.45593536		0.63205735		0
16
Lattice="4.890832166649 0.0 0.0 0.05222430587547802 4.890837057481166 0.0 -1.038568210587915 -1.4980667834767554 3.914309052927194" Properties=species:S:1:pos:R:3:force:R:3:tags:I:1 config_type=shaiducarbon energy=-4060.2545642852324 unit_cell=conventional pbc="T T T"
C		0.53929495		1.63326944		1.24184929		-0.32839826		1.28464240		1.63169454		0
C		0.56985286		4.07392821		1.28238940		0.19530269		1.49055784		-0.52714649		0
C		0.56939997		-0.84113265		2.72362911		-2.33922925		-1.55946089		0.01408374		0
C		0.43695868		1.57006913		2.73637903		0.35680357		0.07987729		-0.14146966		0
C		2.13981928		1.68884934		0.81568957		1.81350536		-1.15541146		-0.48463635		0
C		1.19739945		0.31312770		3.25052873		-0.20537114		1.47338440		0.33241227		0
C		2.21974917		4.09520822		0.77926265		0.37013578		0.61862898		1.60864999		0
C		1.17278976		2.76656866		3.25488891		1.11584369		-1.11364000		-0.88796587		0
C		2.89751874		0.39846392		1.29706923		-0.45769760		0.90883065		-0.88343096		0
C		2.90744860		0.34722805		2.72587890		-0.59850880		0.85351923		1.91554147		0
C		2.92861905		2.83338868		1.34964959		-0.74355204		0.98997832		-1.73837047		0
C		2.80461885		2.76314900		2.79938908		2.01437012		1.49856221		-0.18570450		0
C		4.72135798		0.45723803		0.75723385		-1.36514139		0.11734781		0.08847713		0
C		3.51594882		-0.86956159		3.24187881		0.89012766		-2.71849786		0.48774199		0
C		4.70663805		2.92510890		0.81211877		-1.10554487		-1.70851042		-0.31891217		0
C		3.60427871		1.56292949		3.27289891		0.38735396		-1.05980851		-0.91096492		0
16
Lattice="4.667395116054 0.0 0.0 -0.21975496424917051 4.752290365819906 0.0 -1.29925344366572 -1.3715747309889768 4.188100311586415" Properties=species:S:1:pos:R:3:force:R:3:tags:I:1 config_type=shaiducarbon energy=-4060.057658405057 unit_cell=conventional pbc="T T T"
C		0.39361870		-0.06951758		1.59177917		-0.50191366		2.05647737		1.77363215		0
C		0.07685053		-0.08387402		3.11914874		3.55121325		0.29798620		2.40164437		0
C		0.34592679		2.31790916		1.62478932		-1.54444718		1.31866686		0.36443153		0
C		0.12700496		2.29828883		3.12999857		0.54100577		-0.55010620		2.28751507		0
C		1.96715908		-0.03769762		1.14162944		1.73019127		1.48041894		-1.19670161		0
C		1.87943913		2.33961908		1.11662947		1.70148462		1.05404229		-0.47273959		0
C		0.82409955		1.07709944		3.71517837		-1.47111823		-0.35384449		-0.01396727		0
C		0.68073071		3.52557851		3.70321864		-0.48631682		-2.37983575		0.82617142		0
C		2.64569892		1.17930932		1.70679918		-0.41693401		-1.46188488		-1.93296482		0
C		2.50466891		1.04482954		3.20553849		-2.09897285		1.78434003		0.06822273		0
C		2.55950893		3.54957872		1.64214923		-0.88551818		-1.51341599		0.73208491		0
C		2.34483910		3.43183855		3.23773885		-0.88239634		1.30634767		-1.36112584		0
C		4.35699841		1.16883942		1.08509935		-0.89344181		-0.95273252		-0.50739037		0
C		3.18979864		-0.11616586		3.73659844		1.00676224		-0.77250371		0.07567534		0
C		3.03149880		2.25307904		3.80220848		0.66095014		-0.65355590		-1.18720189		0
C		4.17498820		3.51987869		1.13643930		-0.01054770		-0.66039967		-1.85728639		0
24
Lattice="3.669121755926 0.0 0.0 -0.17693238931426358 5.6622547379366095 0.0 0.14894065943830412 -1.272689917869272 6.764950575732075" Properties=species:S:1:pos:R:3:force:R:3:tags:I:1 config_type=shaiducarbon energy=-6085.205712615179 unit_cell=conventional pbc="T T T"
C		1.17760940		2.01560892		0.27363980		2.71570615		2.74277372		0.68649150		0
C		3.19367843		0.42676582		1.00366954		0.18085231		-1.10695795		-0.26207223		0
C		2.34544902		1.56279930		1.38548936		0.09190827		2.10668256		0.91774415		0
C		1.49806939		0.91687757		2.48094896		-0.70356672		1.23170257		1.25772961		0
C		0.53712787		-0.19688177		2.06774898		1.11596530		-0.68607910		-1.33084799		0
C		2.61720876		0.52052876		3.60639849		-0.38650369		-0.98327108		0.21600908		0
C		0.63285269		2.16697891		2.94147877		1.82695661		-1.64736234		-2.28363296		0
C		3.28940838		1.82334914		3.92232822		1.75082464		0.81666424		-2.14096645		0
C		2.15326887		0.08056107		4.91640778		-0.59138067		1.29591258		0.12473434		0
C		1.83325907		1.35314936		5.78677739		0.52934864		-4.54909413		-0.90943203		0
C		0.73843460		-0.56789382		6.78253704		-2.59280553		0.03154206		0.34785741		0
C		3.46084846		-0.75460662		5.56666751		0.24105885		-2.16781188		-2.13980791		0
C		1.75981903		5.35431746		0.31402289		0.03707662		-2.40578128		1.04733994		0
C		0.38493087		3.26259848		0.76924679		-2.14322028		-2.26528684		-0.01162499		0
C		1.26060933		4.34758787		1.36251956		-0.35808013		2.87599476		0.51929845		0
C		2.39856910		3.90012819		2.57290889		1.35925407		-3.52602156		-1.83848879		0
C		3.29152840		2.71995885		1.88453909		-0.11697011		1.69460229		-0.92914752		0
C		1.96872929		2.89553880		3.54204833		-2.85713596		0.80720360		1.38827388		0
C		3.32544833		4.92988776		3.17249842		0.02072619		2.60966067		0.97747350		0
C		0.62592575		4.72481798		4.52714808		0.67866994		-0.35112555		-0.11810140		0
C		1.39202920		3.40523852		4.79526768		-1.51224768		-0.77543734		-0.61367163		0
C		0.53749478		2.13352899		5.09197782		-0.13392167		0.26657501		3.57898530		0
C		2.46789899		3.53309824		5.83933719		0.03778573		3.97706308		1.13719698		0
C		3.16040866		2.26555903		6.13963720		0.80969937		0.00785216		0.37865977		0
16
Lattice="4.787932111468 0.0 0.0 0.09054458415997135 4.8726593581125375 0.0 -1.1225594111263413 -1.2286695625806952 4.047851869134168" Properties=species:S:1:pos:R:3:force:R:3:tags:I:1 config_type=shaiducarbon energy=-4061.1430819484003 unit_cell=conventional pbc="T T T"
C		-0.22295868		0.32419280		1.69334939		1.34110233		4.28167322		1.34340424		0
C		-0.29503908		0.31280805		3.21353890		-1.48838217		4.77674697		-0.96448736		0
C		-0.16260392		2.85980887		1.69699923		0.47348727		0.22777729		-0.92786197		0
C		-0.26293791		2.87610890		3.12607870		0.48570876		-1.42390451		3.74772925		0
C		1.38667946		0.45302600		1.21926942		2.58709125		-1.65442826		-1.82615854		0
C		0.38729296		-0.78959081		3.68803829		1.06080919		-3.04799450		2.55979177		0
C		0.33929298		1.61381944		3.73179856		1.24427991		0.13804983		-2.28678925		0
C		1.53067939		2.92700893		1.10958938		0.28706389		-2.51085618		3.67449312		0
C		2.05579920		-0.77304755		3.16242868		-0.48521742		-2.82747287		2.49798651		0
C		2.26624892		1.60348948		1.73917947		-2.06884901		1.76331919		-4.32441373		0
C		2.21007930		1.57716926		3.12615866		-1.14223197		1.74791184		4.42342545		0
C		2.25741902		4.10003841		1.71258921		-0.76447852		0.33012759		-2.41467525		0
C		2.76540904		0.35813397		3.75589861		1.98141369		1.24960389		-0.09569448		0
C		3.95131854		1.65369956		1.25339971		-2.77618060		-2.89044746		-3.24443670		0
C		3.90687839		4.06889818		1.20797947		-1.06877473		-0.92221402		-3.25424187		0
C		2.83353892		2.82425895		3.67438838		0.33315763		0.76210822		1.09192907		0
16
Lattice="7.632108729377 0.0 0.0 -0.8452484096697734 3.6252363822366163 0.0 0.24744822922386112 0.4749003335767545 4.051840731773873" Properties=species:S:1:pos:R:3:force:R:3:tags:I:1 config_type=shaiducarbon energy=-4051.8984216849885 unit_cell=conventional pbc="T T T"
C		5.75177618		0.89858159		2.46168783		-2.30051844		0.40126595		0.53778186		0
C		5.53358030		2.15269885		3.59370738		1.39039453		0.14089399		1.70229992		0
C		4.93426743		0.51358978		0.43162628		-1.59702730		2.03158727		0.13754076		0
C		2.06021906		3.93130684		3.05062713		-2.70876828		-1.78599402		-1.86513521		0
C		6.91507822		2.75961940		3.78696840		-1.85233599		-1.23203579		0.43018394		0
C		2.42692891		1.67847854		0.69708705		-2.50057716		-1.44912962		0.69396545		0
C		7.12918711		0.81568696		1.86287028		-1.25498316		-1.25415141		1.03271858		0
C		3.20858888		1.63170058		2.21978890		2.39600466		-0.31678509		-1.23054532		0
C		4.49008710		1.09169912		1.69260786		3.22467261		-0.70308953		-0.63221264		0
C		0.94698671		3.41811698		2.08480972		-0.58896563		-2.03417149		1.75579305		0
C		2.12582238		0.21890033		0.39759089		1.00819075		0.98015902		-2.72238306		0
C		-0.45047606		3.64956907		2.64692979		1.57298979		0.90776235		-1.47944115		0
C		1.11760708		2.41538840		0.92647007		-0.07300859		1.83272977		4.17895140		0
C		3.09444077		2.74251737		3.31080800		1.74009439		1.60720528		-0.08058872		0
C		4.46297632		3.42711829		3.56248824		1.20776481		-0.26241188		-0.84879226		0
C		-0.17387470		1.70660820		0.75199778		0.33607250		1.13616519		-1.61013660		0
16
Lattice="5.220583522429 0.0 0.0 -0.9991935832752985 4.221228101064507 0.0 0.9114930006820138 -0.7723957733104154 4.849222534144536" Properties=species:S:1:pos:R:3:force:R:3:tags:I:1 config_type=shaiducarbon energy=-4059.7666036793466 unit_cell=conventional pbc="T T T"
C		1.04626967		1.25271921		2.41993884		0.29822094		-0.17946134		0.21243859		0
C		0.82645387		0.37743462		3.70449840		0.25026212		-0.68515170		-0.92171085		0
C		0.82377884		2.68430867		2.46586902		-0.91911301		-0.02998114		-0.60713614		0
C		0.09110806		3.17941889		3.62235826		0.50757806		-0.46495274		0.96723973		0
C		1.68476949		0.73097671		1.18290957		-0.36980462		0.40245303		1.55073816		0
C		0.99590670		3.55489840		1.18525936		0.03091060		-0.64874691		0.33457843		0
C		1.87569928		1.60010937		-0.00073088		0.76952894		-0.09531215		-0.52264757		0
C		3.43034833		0.33670206		3.65676869		0.48505004		-0.36102019		-0.11910156		0
C		1.64371952		3.00400885		0.00162099		-0.98435198		1.58431113		0.53177602		0
C		2.68851907		3.12107887		3.64152824		0.68701524		0.18365301		-0.13966037		0
C		3.70908834		1.22516967		2.45526914		-1.75190322		0.47135196		1.62456076		0